
### SPECIFY THE NUMBER OF PRODUCTION STEPS ###
variable Nprod equal 30000

### ASSIGN ATOMIC VELOCITIES ###
velocity all create ${T} 12345 dist gaussian rot yes mom yes
velocity all create 1.5 12345 dist gaussian rot yes mom yes

### SPECIFY ENSEMBLE ###
timestep ${timestep}
timestep 0.0001
fix nve all nve

### THERMODYNAMIC OUTPUT CONTROL ###
thermo_style custom time etotal temp press
thermo 10

### RECORD TRAJECTORY ###
dump traj all custom 1000 traj.dump id x y z

### SPECIFY TIMESTEP ###
variable n_steps equal floor(50/${timestep})
variable n_steps equal floor(50/0.0001)
timestep ${timestep}
timestep 0.0001

### RUN SIMULATION TO MELT CRYSTAL ###
run ${n_steps}
run 500000
Last active /omp style is pair_style lj/cut/omp
Neighbor list info ...
  update every 1 steps, delay 10 steps, check yes
  max neighbors/atom: 2000, page size: 100000
  master list distance cutoff = 4.5
  ghost atom cutoff = 4.5
  binsize = 2.25, bins = 3 3 3
  1 neighbor lists, perpetual/occasional/extra = 1 0 0
  (1) pair lj/cut/omp, perpetual
      attributes: half, newton on, omp
      pair build: half/bin/atomonly/newton/omp
      stencil: half/bin/3d/newton
      bin: standard
Per MPI rank memory allocation (min/avg/max) = 10.63 | 10.63 | 10.63 Mbytes
Time TotEng Temp Press 
           0   -3.0327711          1.5   0.89516323 
       0.001   -3.0327711    1.4996567   0.89708456 
       0.002   -3.0327711    1.4986247   0.90285706 
       0.003   -3.0327711    1.4969013   0.91249301 
       0.004   -3.0327711    1.4944831   0.92600396 
       0.005   -3.0327711    1.4913671   0.94340063 
       0.006   -3.0327711    1.4875497   0.96469268 
       0.007   -3.0327712    1.4830276   0.98988849 
       0.008   -3.0327712    1.4777975    1.0189948 
       0.009   -3.0327712     1.471856    1.0520165 
        0.01   -3.0327712    1.4652001    1.0889561 
       0.011   -3.0327712    1.4578268    1.1298133 
       0.012   -3.0327712     1.449734    1.1745843 
       0.013   -3.0327712    1.4409195    1.2232614 
       0.014   -3.0327712    1.4313823    1.2758324 
       0.015   -3.0327712     1.421122    1.3322795 
       0.016   -3.0327712    1.4101393    1.3925787 
       0.017   -3.0327712    1.3984361    1.4566989 
       0.018   -3.0326407    1.3860159    1.5248087 
       0.019   -3.0326407    1.3728844    1.5964426 
        0.02    -3.032249     1.359049    1.6723737 
       0.021   -3.0317268    1.3445205    1.7521132 
       0.022    -3.031335    1.3293108    1.8351625 
       0.023   -3.0309435    1.3134347    1.9216318 
       0.024   -3.0301603    1.2969087    2.0120353 
       0.025   -3.0300298    1.2797546    2.1045794 
       0.026   -3.0289855    1.2619966     2.201615 
       0.027   -3.0283328    1.2436664    2.3008916 
       0.028   -3.0274189    1.2247939     2.403269 
       0.029   -3.0268967    1.2054181    2.5074981 
        0.03   -3.0261134    1.1855812      2.61439 
       0.031   -3.0251996    1.1653317    2.7234832 
       0.032   -3.0242858    1.1447198    2.8342981 
       0.033    -3.023372    1.1238038    2.9465353 
       0.034   -3.0225887    1.1026475    3.0596639 
       0.035    -3.021675    1.0813177    3.1737574 
       0.036   -3.0210221    1.0598891    3.2878238 
       0.037   -3.0202388    1.0384375    3.4021044 
       0.038   -3.0188031    1.0170459    3.5170262 
       0.039   -3.0180197   0.99579878    3.6300935 
        0.04   -3.0167143   0.97478309    3.7427511 
       0.041   -3.0165836   0.95408867     3.851859 
       0.042   -3.0160614   0.93380464    3.9594768 
       0.043   -3.0148866   0.91402152    4.0655832 
       0.044   -3.0146255   0.89482843    4.1672527 
       0.045   -3.0135811   0.87631178    4.2667714 
       0.046   -3.0131893   0.85855556    4.3614492 
       0.047    -3.012406   0.84163795     4.452572 
       0.048   -3.0112312   0.82563104    4.5397895 
       0.049   -3.0113617   0.81060135    4.6200779 
        0.05   -3.0114922   0.79660807    4.6952328 
       0.051   -3.0112311    0.7837014    4.7656343 
       0.052   -3.0105784    0.7719216    4.8310825 
       0.053   -3.0105784   0.76129825    4.8897592 
       0.054     -3.01097   0.75185485    4.9419667 
       0.055   -3.0114921    0.7436047    4.9880534 
       0.056   -3.0111005   0.73654868    5.0296657 
       0.057    -3.011231   0.73068031    5.0645391 
       0.058   -3.0111005   0.72598306    5.0939884 
       0.059   -3.0105783   0.72243103    5.1183303 
        0.06   -3.0103173    0.7199916    5.1366681 
       0.061   -3.0103174   0.71862688     5.149176 
       0.062   -3.0105784   0.71829149    5.1560595 
       0.063   -3.0108395   0.71893322    5.1579681 
       0.064   -3.0108395   0.72049884    5.1555674 
       0.065   -3.0108396   0.72292936    5.1487122 
       0.066   -3.0107091   0.72616273    5.1378957 
       0.067   -3.0107093   0.73013653    5.1229949 
       0.068    -3.011101   0.73478665    5.1038944 
       0.069   -3.0095346   0.74004999    5.0846399 
        0.07   -3.0094041   0.74586187    5.0601284 
       0.071   -3.0091431   0.75215838    5.0331587 
       0.072    -3.008621   0.75887859    5.0042343 
       0.073   -3.0082295   0.76596164    4.9730229 
       0.074   -3.0083601   0.77334834    4.9391847 
       0.075   -3.0082296   0.78098372    4.9042389 
       0.076   -3.0082295   0.78881516    4.8678217 
       0.077    -3.008099   0.79679287     4.830597 
       0.078   -3.0083602   0.80487114    4.7919662 
       0.079   -3.0080991    0.8130032     4.753611 
        0.08    -3.007838   0.82114946    4.7149044 
       0.081   -3.0079686   0.82927308    4.6754128 
       0.082   -3.0080991   0.83733814    4.6359397 
       0.083   -3.0079686   0.84531493      4.59706 
       0.084   -3.0086213    0.8531747    4.5572567 
       0.085   -3.0087519   0.86089474    4.5187371 
       0.086   -3.0083603   0.86845238    4.4816177 
       0.087   -3.0082298   0.87583154    4.4447468 
       0.088   -3.0080992   0.88301979    4.4086208 
       0.089   -3.0079687    0.8900047    4.3733099 
        0.09    -3.007316   0.89677897    4.3396996 
       0.091   -3.0074466    0.9033358    4.3057533 
       0.092    -3.007055   0.90967275    4.2735792 
       0.093    -3.007055   0.91578902    4.2417389 
       0.094    -3.007055   0.92168565    4.2108643 
       0.095   -3.0069245   0.92736514    4.1811618 
       0.096   -3.0069246   0.93283467     4.152201 
       0.097   -3.0067941   0.93810132    4.1243785 
       0.098   -3.0062719   0.94317276    4.0980852 
       0.099   -3.0060107   0.94805745    4.0722507 
         0.1   -3.0060108   0.95276424     4.046841 
       0.101   -3.0060107   0.95730267    4.0222346 
       0.102   -3.0060107   0.96168343      3.99839 
       0.103   -3.0065329   0.96591829    3.9744305 
       0.104   -3.0062719   0.97001827    3.9523914 
       0.105   -3.0062718   0.97399452    3.9305634 
       0.106   -3.0061413   0.97785764     3.909525 
       0.107   -3.0064023   0.98161791    3.8883997 
       0.108   -3.0060108   0.98528526    3.8688066 
       0.109   -3.0062719   0.98886882    3.8486232 
        0.11   -3.0062718    0.9923775    3.8292625 
       0.111   -3.0062719   0.99581997    3.8102664 
       0.112    -3.006533   0.99920626    3.7911748 
       0.113   -3.0064023    1.0025467    3.7729835 
       0.114   -3.0062717    1.0058484    3.7550291 
       0.115   -3.0064022    1.0091203    3.7368537 
       0.116   -3.0060107    1.0123715    3.7196634 
       0.117   -3.0058801    1.0156089    3.7021719 
       0.118   -3.0057495    1.0188413    3.6847546 
       0.119   -3.0052275    1.0220785    3.6679929 
        0.12   -3.0052274    1.0253256    3.6503969 
       0.121   -3.0048358    1.0285914    3.6333829 
       0.122   -3.0048357    1.0318817    3.6156681 
       0.123   -3.0052273    1.0352039    3.5972168 
       0.124   -3.0052272    1.0385643     3.579243 
       0.125   -3.0048357    1.0419681    3.5617157 
       0.126   -3.0045746     1.045422    3.5437705 
       0.127   -3.0047051    1.0489318    3.5249618 
       0.128   -3.0044441    1.0525012    3.5065121 
       0.129   -3.0043135    1.0561344    3.4875643 
        0.13    -3.004183    1.0598368    3.4683013 
       0.131   -3.0040523    1.0636142    3.4486985 
       0.132   -3.0043133    1.0674686    3.4281145 
       0.133   -3.0041828    1.0714027    3.4077802 
       0.134    -3.004705    1.0754175    3.3860187 
       0.135    -3.004966    1.0795157    3.3642723 
       0.136   -3.0047049    1.0836982    3.3429466 
       0.137   -3.0050965    1.0879654    3.3201617 
       0.138   -3.0052271    1.0923175    3.2973671 
       0.139   -3.0056187    1.0967542    3.2737269 
        0.14   -3.0054882    1.1012756    3.2504847 
       0.141   -3.0060104    1.1058822    3.2257653 
       0.142   -3.0056188    1.1105732    3.2020638 
       0.143   -3.0054883    1.1153471    3.1775094 
       0.144   -3.0054883    1.1202025    3.1523122 
       0.145   -3.0056188    1.1251385    3.1264733 
       0.146   -3.0056187    1.1301544    3.1004109 
       0.147   -3.0056188    1.1352521    3.0739144 
       0.148   -3.0054883    1.1404297    3.0471965 
       0.149   -3.0053577    1.1456852    3.0200544 
        0.15   -3.0053577    1.1510164    2.9922849 
       0.151   -3.0054882    1.1564206    2.9638947 
       0.152   -3.0050966    1.1618973    2.9359268 
       0.153   -3.0048355    1.1674451    2.9073463 
       0.154   -3.0043134    1.1730629    2.8787811 
       0.155   -3.0040524    1.1787493    2.8494045 
       0.156   -3.0039218    1.1845028      2.81943 
       0.157   -3.0035301    1.1903213     2.789488 
       0.158    -3.003008    1.1962036    2.7593759 
       0.159    -3.002747    1.2021482    2.7284761 
        0.16    -3.003008    1.2081535     2.696379 
       0.161   -3.0031385    1.2142198    2.6641287 
       0.162   -3.0031385    1.2203441    2.6317345 
       0.163   -3.0024858    1.2265264    2.6000339 
       0.164   -3.0022248    1.2327653    2.5673707 
       0.165   -3.0022248    1.2390565    2.5339662 
       0.166   -3.0020943    1.2453992    2.5004528 
       0.167   -3.0018333     1.251792    2.4668404 
       0.168   -3.0018332     1.258233    2.4325165 
       0.169   -3.0020943    1.2647189    2.3974958 
        0.17   -3.0022249    1.2712483    2.3624152 
       0.171   -3.0020943    1.2778175    2.3275001 
       0.172   -3.0018332    1.2844229    2.2925609 
       0.173   -3.0019638     1.291061    2.2567858 
       0.174   -3.0018332    1.2977278    2.2212363 
       0.175   -3.0019637    1.3044183    2.1851054 
       0.176   -3.0018332    1.3111277    2.1492515 
       0.177   -3.0020943    1.3178521    2.1126608 
       0.178   -3.0023554    1.3245836    2.0759917 
       0.179   -3.0020943    1.3313169    2.0401083 
        0.18   -3.0018333    1.3380446    2.0042152 
       0.181   -3.0020943    1.3447604    1.9675172 
       0.182   -3.0019638    1.3514564    1.9315108 
       0.183   -3.0020943    1.3581245    1.8951983 
       0.184   -3.0020943    1.3647568    1.8592471 
       0.185   -3.0020943    1.3713435    1.8234968 
       0.186   -3.0022249    1.3778766     1.787785 
       0.187   -3.0022249    1.3843459    1.7525781 
       0.188   -3.0013112    1.3907418    1.7191739 
       0.189   -3.0014418     1.397056     1.684501 
        0.19   -3.0017028    1.4032787    1.6500671 
       0.191   -3.0018334    1.4093987    1.6163413 
       0.192    -3.001964    1.4154063    1.5831678 
       0.193   -3.0013113    1.4212929    1.5518443 
       0.194   -3.0010502     1.427047    1.5205529 
       0.195   -3.0009197    1.4326583    1.4897618 
       0.196   -3.0010502    1.4381176     1.459313 
       0.197   -3.0007891    1.4434155    1.4302958 
       0.198   -3.0014418    1.4485438    1.4006773 
       0.199   -3.0015724     1.453494    1.3727915 
         0.2   -3.0013113     1.458257    1.3464771 
       0.201   -3.0015724     1.462824    1.3203228 
       0.202   -3.0014418    1.4671869    1.2958266 
       0.203   -3.0018334    1.4713398    1.2715702 
       0.204   -3.0019639    1.4752747    1.2488408 
       0.205   -3.0020945    1.4789858    1.2272562 
       0.206    -3.002225    1.4824685    1.2068474 
       0.207   -3.0022251    1.4857191    1.1878492 
       0.208   -3.0023556    1.4887314    1.1698753 
       0.209    -3.001964    1.4914998    1.1539918 
        0.21   -3.0018336    1.4940215    1.1389707 
       0.211   -3.0019641    1.4962923    1.1248324 
       0.212   -3.0017029    1.4983112    1.1126295 
       0.213   -3.0018335    1.5000768    1.1011254 
       0.214    -3.001964     1.501588    1.0909525 
       0.215    -3.001703    1.5028438    1.0827409 
       0.216   -3.0017029    1.5038443    1.0754526 
       0.217   -3.0014419    1.5045902    1.0699181 
       0.218   -3.0013113    1.5050838    1.0655069 
       0.219   -3.0011809    1.5053275    1.0624177 
        0.22   -3.0013114    1.5053261    1.0602191 
       0.221   -3.0006587     1.505084    1.0605577 
       0.222   -2.9997448    1.5046051    1.0625821 
       0.223   -2.9996143    1.5038961    1.0646018 
       0.224   -2.9993533    1.5029628    1.0680457 
       0.225   -2.9996143    1.5018131    1.0718407 
       0.226   -2.9993533    1.5004556    1.0776146 
       0.227   -2.9997449    1.4988973    1.0834591 
       0.228   -2.9994837    1.4971462    1.0914151 
       0.229   -2.9992226    1.4952111    1.1004001 
        0.23   -2.9989616    1.4931026    1.1103676 
       0.231   -2.9993531    1.4908314    1.1202302 
       0.232   -2.9992226    1.4884075    1.1318124 
       0.233   -2.9989616    1.4858406    1.1444431 
       0.234   -2.9990921     1.483141    1.1572423 
       0.235   -2.9990921    1.4803179    1.1709961 
       0.236   -2.9990921    1.4773807    1.1854505 
       0.237   -2.9992226    1.4743387    1.2003528 
       0.238   -2.9989616    1.4712018    1.2164906 
       0.239     -2.99857    1.4679796     1.233405 
        0.24    -2.998831    1.4646782    1.2498117 
       0.241   -2.9992227     1.461307    1.2665026 
       0.242   -2.9992227    1.4578714    1.2842772 
       0.243   -2.9990922    1.4543778    1.3026866 
       0.244   -2.9994838    1.4508323    1.3206596 
       0.245   -2.9997449    1.4472407    1.3392058 
       0.246   -2.9998755    1.4436082    1.3582964 
       0.247   -2.9998756    1.4399396    1.3779041 
       0.248   -3.0003977    1.4362434    1.3969558 
       0.249   -3.0002672    1.4325224    1.4172991 
        0.25   -3.0000062    1.4287801    1.4380768 
       0.251   -3.0001367    1.4250205    1.4584305 
       0.252   -3.0002673    1.4212495    1.4789547 
       0.253   -3.0006588    1.4174726     1.499204 
       0.254   -3.0005283    1.4136963    1.5203955 
       0.255   -3.0003978    1.4099244    1.5416706 
       0.256   -3.0003978    1.4061622     1.562792 
       0.257   -3.0009199    1.4024161    1.5831048 
       0.258   -3.0006589    1.3986911    1.6046606 
       0.259   -3.0006588    1.3949925    1.6257672 
        0.26   -3.0003977     1.391325    1.6472291 
       0.261   -3.0006588    1.3876929    1.6677729 
       0.262    -3.001181    1.3841004    1.6877898 
       0.263     -3.00092    1.3805516    1.7089205 
       0.264   -3.0007894    1.3770495    1.7296883 
       0.265   -3.0013116    1.3735989    1.7492392 
       0.266   -3.0010505    1.3702012    1.7698455 
       0.267   -3.0007895    1.3668599     1.790242 
       0.268   -3.0007895    1.3635764         1.81 
       0.269     -3.00092    1.3603499    1.8293202 
        0.27   -3.0013117    1.3571822    1.8479842 
       0.271   -3.0009201    1.3540728    1.8676512 
       0.272   -3.0007896    1.3510216     1.886653 
       0.273   -3.0007896    1.3480273    1.9051965 
       0.274   -3.0007895    1.3450886    1.9234898 
       0.275   -3.0014422    1.3422056    1.9404914 
       0.276   -3.0013116    1.3393752    1.9584943 
       0.277   -3.0010506    1.3365946    1.9764626 
       0.278   -3.0011812    1.3338618     1.993568 
       0.279   -3.0015728    1.3311757    2.0100209 
        0.28   -3.0015728    1.3285337    2.0268656 
       0.281   -3.0013118    1.3259341    2.0438964 
       0.282   -3.0013118    1.3233757    2.0602825 
       0.283   -3.0014423    1.3208578    2.0762317 
       0.284    -3.002095    1.3183812    2.0911157 
       0.285   -3.0019644    1.3159435     2.107015 
       0.286   -3.0015729    1.3135456    2.1230909 
       0.287   -3.0014423    1.3111873    2.1385056 
       0.288   -3.0014423    1.3088708    2.1534556 
       0.289   -3.0014423    1.3065978    2.1681363 
        0.29   -3.0014424    1.3043704    2.1825326 
       0.291   -3.0015729    1.3021932    2.1964161 
       0.292   -3.0019645    1.3000682    2.2095592 
       0.293   -3.0017035    1.2979994    2.2233937 
       0.294   -3.0015729     1.295993    2.2366408 
       0.295   -3.0019645     1.294056    2.2486422 
       0.296    -3.002095    1.2921975    2.2606058 
       0.297   -3.0024865    1.2904254    2.2716589 
       0.298    -3.002356    1.2887503    2.2830021 
       0.299    -3.002356    1.2871826    2.2935464 
         0.3    -3.002617    1.2857343    2.3030312 
       0.301   -3.0027476    1.2844163    2.3120272 
       0.302   -3.0028781    1.2832393    2.3202742 
       0.303    -3.002617    1.2822162    2.3283399 
       0.304    -3.002617    1.2813591    2.3351305 
       0.305   -3.0023559    1.2806804    2.3414252 
       0.306   -3.0022254    1.2801909    2.3465526 
       0.307   -3.0020948    1.2798996    2.3506801 
       0.308   -3.0020949     1.279815    2.3535637 
       0.309   -3.0017032    1.2799451     2.356006 
        0.31   -3.0014421    1.2802959    2.3571553 
       0.311   -3.0014421    1.2808677    2.3567993 
       0.312   -3.0014421    1.2816622    2.3553548 
       0.313   -3.0013116     1.282676    2.3530472 
       0.314   -3.0018338    1.2839033    2.3486573 
       0.315   -3.0014421    1.2853379    2.3447189 
       0.316   -3.0013116     1.286967    2.3394156 
       0.317   -3.0007896    1.2887776    2.3338519 
       0.318   -3.0009202    1.2907548    2.3264385 
       0.319    -3.000398    1.2928802     2.319342 
        0.32    -3.000137    1.2951342     2.311201 
       0.321    -3.000137     1.297494    2.3021205 
       0.322   -3.0001371    1.2999367    2.2926261 
       0.323   -3.0006592    1.3024389    2.2819992 
       0.324   -3.0011815    1.3049772    2.2711875 
       0.325   -3.0019647    1.3075267    2.2598945 
       0.326   -3.0018341     1.310061    2.2501135 
       0.327   -3.0020952     1.312555    2.2398825 
       0.328   -3.0023562    1.3149831    2.2299425 
       0.329   -3.0023562    1.3173255    2.2208127 
        0.33   -3.0027478    1.3195584    2.2115585 
       0.331   -3.0028783    1.3216623     2.203312 
       0.332   -3.0034004    1.3236222    2.1951106 
       0.333   -3.0034004    1.3254242    2.1884783 
       0.334   -3.0032699    1.3270567    2.1828455 
       0.335   -3.0032699    1.3285121    2.1778349 
       0.336   -3.0034005    1.3297871    2.1734678 
       0.337   -3.0032699    1.3308815    2.1703738 
       0.338   -3.0028783     1.331799    2.1685421 
       0.339   -3.0032699    1.3325486    2.1662788 
        0.34   -3.0030087    1.3331398    2.1658321 
       0.341   -3.0027476    1.3335873    2.1661055 
       0.342   -3.0028782    1.3339075    2.1664092 
       0.343   -3.0027477    1.3341169     2.167712 
       0.344   -3.0030087    1.3342357    2.1688944 
       0.345   -3.0028782    1.3342835    2.1711249 
       0.346   -3.0030087    1.3342783    2.1732878 
       0.347   -3.0035309    1.3342354     2.175108 
       0.348    -3.003792    1.3341685    2.1775671 
       0.349    -3.003792    1.3340894    2.1806169 
        0.35   -3.0035309    1.3340057    2.1842263 
       0.351   -3.0036614    1.3339223    2.1873369 
       0.352    -3.004314    1.3338395    2.1897417 
       0.353   -3.0039224    1.3337527    2.1939549 
       0.354   -3.0041835     1.333654    2.1973066 
       0.355   -3.0041835    1.3335327    2.2012996 
       0.356   -3.0045752    1.3333768      2.20495 
       0.357   -3.0044446    1.3331696    2.2097831 
       0.358   -3.0049668    1.3328938    2.2139998 
       0.359   -3.0047057    1.3325325    2.2199621 
        0.36   -3.0043141    1.3320683    2.2267036 
       0.361   -3.0045752    1.3314862     2.233044 
       0.362   -3.0044447    1.3307703     2.240711 
       0.363   -3.0043142     1.329908    2.2491337 
       0.364   -3.0041836    1.3288891    2.2583542 
       0.365   -3.0044447    1.3277051    2.2677795 
       0.366   -3.0044447    1.3263524    2.2784647 
       0.367   -3.0044448    1.3248307    2.2899943 
       0.368   -3.0045754    1.3231417    2.3021492 
       0.369   -3.0045754    1.3212892    2.3153224 
        0.37   -3.0043142    1.3192815    2.3296834 
       0.371   -3.0043142    1.3171283    2.3443518 
       0.372   -3.0045752    1.3148404    2.3592716 
       0.373   -3.0041836    1.3124325    2.3758304 
       0.374   -3.0043142      1.30992    2.3920826 
       0.375   -3.0040531    1.3073197     2.409405 
       0.376   -3.0041837    1.3046486    2.4264673 
       0.377   -3.0039225    1.3019257    2.4444317 
       0.378   -3.0037919     1.299168    2.4623825 
       0.379   -3.0040529    1.2963919    2.4798226 
        0.38   -3.0044445    1.2936135    2.4970881 
       0.381   -3.0047057    1.2908506    2.5145149 
       0.382   -3.0047057     1.288116    2.5322417 
       0.383   -3.0049668    1.2854236    2.5493679 
       0.384   -3.0048362    1.2827866      2.56687 
       0.385    -3.004053    1.2802159    2.5851061 
       0.386    -3.004053    1.2777213    2.6017362 
       0.387   -3.0044446    1.2753115     2.617336 
       0.388   -3.0041835    1.2729972     2.633521 
       0.389    -3.004314    1.2707865    2.6485856 
        0.39   -3.0047056    1.2686861    2.6627001 
       0.391   -3.0047057    1.2667022    2.6768698 
       0.392   -3.0044447    1.2648411    2.6908535 
       0.393   -3.0045753    1.2631089    2.7035803 
       0.394   -3.0044447    1.2615116    2.7160615 
       0.395   -3.0047058    1.2600521    2.7272344 
       0.396   -3.0045753    1.2587344    2.7383256 
       0.397   -3.0047058    1.2575634    2.7482738 
       0.398   -3.0043142    1.2565428    2.7583106 
       0.399   -3.0037921    1.2556745    2.7678004 
         0.4     -3.00327    1.2549606    2.7765265 
       0.401    -3.003531       1.2544    2.7832404 
       0.402   -3.0036616    1.2539924    2.7893985 
       0.403    -3.003531    1.2537383    2.7952124 
       0.404   -3.0036616    1.2536342    2.7998619 
       0.405    -3.003531    1.2536763     2.804195 
       0.406   -3.0036615      1.25386    2.8073997 
       0.407   -3.0034005    1.2541812    2.8105377 
       0.408     -3.00327    1.2546341    2.8128043 
       0.409   -3.0031395    1.2552132    2.8144363 
        0.41   -3.0031396    1.2559119    2.8152579 
       0.411   -3.0028785    1.2567232    2.8159278 
       0.412   -3.0037923    1.2576394    2.8141948 
       0.413   -3.0036618    1.2586532     2.813632 
       0.414   -3.0040534    1.2597556    2.8117835 
       0.415   -3.0039229    1.2609393    2.8103508 
       0.416    -3.004184    1.2621974    2.8079143 
       0.417   -3.0040535     1.263521    2.8057613 
       0.418   -3.0041841    1.2649035    2.8028863 
       0.419   -3.0041842    1.2663376    2.7999479 
        0.42   -3.0041842    1.2678173    2.7967694 
       0.421   -3.0041842    1.2693361    2.7933809 
       0.422   -3.0041841    1.2708898    2.7898087 
       0.423   -3.0040535    1.2724737    2.7862854 
       0.424    -3.003662     1.274083    2.7830429 
       0.425    -3.003923    1.2757138     2.778647 
       0.426   -3.0037924    1.2773608    2.7747847 
       0.427   -3.0041841    1.2790198    2.7700207 
       0.428   -3.0044451    1.2806856    2.7654172 
       0.429   -3.0043146    1.2823545    2.7614097 
        0.43   -3.0040535    1.2840224    2.7576033 
       0.431   -3.0044451    1.2856841    2.7527728 
       0.432   -3.0043147    1.2873347     2.748813 
       0.433    -3.003662    1.2889696    2.7457478 
       0.434   -3.0032705    1.2905838     2.742354 
       0.435   -3.0026178    1.2921692    2.7394945 
       0.436   -3.0023568      1.29372    2.7361569 
       0.437   -3.0023568    1.2952281    2.7325813 
       0.438   -3.0023567    1.2966872    2.7292131 
       0.439   -3.0019651    1.2980904    2.7267062 
        0.44   -3.0020958    1.2994301    2.7236357 
       0.441   -3.0019652    1.3006995    2.7212788 
       0.442   -3.0017041    1.3018902     2.719457 
       0.443    -3.001443    1.3029972    2.7179867 
       0.444   -3.0010515    1.3040162    2.7170959 
       0.445   -3.0017041    1.3049411    2.7149346 
       0.446   -3.0019652    1.3057686    2.7138047 
       0.447   -3.0017042    1.3064943    2.7139283 
       0.448   -3.0019653    1.3071153    2.7136499 
       0.449   -3.0020959      1.30763     2.714013 
        0.45   -3.0022265    1.3080384    2.7148079 
       0.451   -3.0018348    1.3083418    2.7168598 
       0.452   -3.0015737    1.3085424    2.7191175 
       0.453   -3.0013127    1.3086416    2.7217768 
       0.454    -3.002357    1.3086452    2.7227357 
       0.455   -3.0022264    1.3085562    2.7259264 
       0.456   -3.0032708    1.3083782    2.7275825 
       0.457   -3.0034013    1.3081182    2.7310023 
       0.458   -3.0036624    1.3077809    2.7344947 
       0.459   -3.0041845     1.307371    2.7378238 
        0.46   -3.0041845    1.3068951    2.7422059 
       0.461   -3.0041844    1.3063609    2.7467763 
       0.462   -3.0037928    1.3057731    2.7521299 
       0.463   -3.0039234    1.3051383    2.7567804 
       0.464   -3.0039234    1.3044617    2.7617404 
       0.465   -3.0036623    1.3037505    2.7671883 
       0.466   -3.0039233    1.3030063     2.771857 
       0.467   -3.0041844    1.3022331    2.7765567 
       0.468   -3.0041843    1.3014348    2.7816839 
       0.469   -3.0041844     1.300615    2.7868046 
        0.47   -3.0041843    1.2997767     2.791904 
       0.471   -3.0044453    1.2989215    2.7965542 
       0.472   -3.0048368    1.2980516    2.8009514 
       0.473   -3.0054894    1.2971694    2.8048771 
       0.474   -3.0052284    1.2962738    2.8101981 
       0.475   -3.0050977    1.2953673    2.8152401 
       0.476   -3.0049672    1.2944511    2.8202021 
       0.477   -3.0047061    1.2935271    2.8252814 
       0.478   -3.0050977    1.2925975     2.829217 
       0.479   -3.0052284    1.2916664    2.8334473 
        0.48   -3.0050978    1.2907374    2.8379532 
       0.481   -3.0052283    1.2898139    2.8418808 
       0.482   -3.0050978    1.2889041     2.846029 
       0.483   -3.0052283     1.288015    2.8495313 
       0.484   -3.0053588    1.2871554    2.8527626 
       0.485   -3.0056199    1.2863366    2.8554656 
       0.486   -3.0054894    1.2855714    2.8584176 
       0.487   -3.0057505    1.2848729    2.8603117 
       0.488   -3.0057505    1.2842565    2.8621231 
       0.489   -3.0061421    1.2837386    2.8627437 
        0.49    -3.006142    1.2833333    2.8633564 
       0.491   -3.0060115    1.2830563    2.8634781 
       0.492   -3.0057504     1.282923    2.8630449 
       0.493   -3.0058809    1.2829476    2.8611665 
       0.494   -3.0058808    1.2831422    2.8586257 
       0.495   -3.0056197    1.2835165    2.8555916 
       0.496   -3.0056197    1.2840788    2.8512047 
       0.497   -3.0054892    1.2848322    2.8460792 
       0.498   -3.0056197    1.2857751    2.8395998 
       0.499   -3.0057501    1.2869041    2.8322052 
         0.5   -3.0053585    1.2882115    2.8247682 
       0.501   -3.0054891    1.2896834    2.8156869 
       0.502   -3.0056195    1.2913064    2.8058649 
       0.503   -3.0056195    1.2930616    2.7955994 
       0.504   -3.0058806    1.2949269    2.7843689 
       0.505   -3.0053585    1.2968784    2.7739489 
       0.506   -3.0053585      1.29889    2.7623785 
       0.507   -3.0050974    1.3009354    2.7510277 
       0.508   -3.0050973    1.3029908    2.7391828 
       0.509   -3.0047057    1.3050308    2.7280028 
        0.51   -3.0045752    1.3070291    2.7165656 
       0.511   -3.0049668    1.3089629    2.7045634 
       0.512   -3.0049668    1.3108118     2.693551 
       0.513   -3.0050974     1.312557    2.6827863 
       0.514    -3.005489    1.3141812    2.6721424 
       0.515    -3.005489    1.3156716    2.6627263 
       0.516   -3.0053585    1.3170154    2.6541818 
       0.517   -3.0052279    1.3182038    2.6463478 
       0.518   -3.0050974    1.3192292     2.639263 
       0.519   -3.0053585    1.3200866     2.632332 
        0.52   -3.0048364    1.3207727    2.6274475 
       0.521   -3.0048364    1.3212862    2.6225423 
       0.522   -3.0041836    1.3216273    2.6194947 
       0.523   -3.0040532    1.3217978    2.6164324 
       0.524   -3.0036615    1.3217981    2.6146027 
       0.525   -3.0032699    1.3216302    2.6135828 
       0.526   -3.0034005    1.3212964    2.6125316 
       0.527   -3.0034004    1.3208004    2.6124758 
       0.528   -3.0036615    1.3201459    2.6127758 
       0.529   -3.0034004    1.3193377    2.6146613 
        0.53   -3.0031393      1.31838    2.6172815 
       0.531   -3.0035309    1.3172782    2.6195744 
       0.532   -3.0044447    1.3160386    2.6217238 
       0.533   -3.0041836     1.314667    2.6264102 
       0.534   -3.0039225     1.313167    2.6317406 
       0.535   -3.0032699    1.3115466    2.6383102 
       0.536   -3.0031392    1.3098087    2.6446433 
       0.537   -3.0031393     1.307961    2.6513349 
       0.538   -3.0032698    1.3060084    2.6583614 
       0.539   -3.0034004     1.303956     2.665906 
        0.54   -3.0031393    1.3018093    2.6745669 
       0.541   -3.0034003    1.2995748    2.6828603 
       0.542   -3.0030088    1.2972581    2.6926305 
       0.543   -3.0026171    1.2948683    2.7028041 
       0.544   -3.0028781    1.2924107    2.7123118 
       0.545   -3.0030086    1.2898918    2.7223687 
       0.546   -3.0034002    1.2873195    2.7323148 
       0.547   -3.0034002    1.2847028    2.7431499 
       0.548   -3.0032696    1.2820509    2.7544155 
       0.549   -3.0030086    1.2793728    2.7660679 
        0.55   -3.0023558      1.27668    2.7784738 
       0.551   -3.0023557    1.2739846    2.7899174 
       0.552   -3.0022253    1.2712971    2.8015961 
       0.553   -3.0023558    1.2686293    2.8128338 
       0.554   -3.0022252    1.2659927    2.8244106 
       0.555   -3.0024862    1.2633976    2.8352371 
       0.556   -3.0023557    1.2608568    2.8465102 
       0.557   -3.0024862    1.2583792    2.8571478 
       0.558   -3.0023557    1.2559727    2.8679444 
       0.559   -3.0020946    1.2536431    2.8786628 
        0.56    -3.002225    1.2513958    2.8884471 
       0.561   -3.0018335    1.2492342    2.8987378 
       0.562    -3.001703    1.2471573    2.9082847 
       0.563   -3.0014419    1.2451633    2.9177175 
       0.564   -3.0015725    1.2432479    2.9262191 
       0.565    -3.001442    1.2414058    2.9348521 
       0.566   -3.0017031      1.23963    2.9426074 
       0.567   -3.0017031    1.2379096    2.9505659 
       0.568   -3.0020947    1.2362342    2.9577315 
       0.569   -3.0018337    1.2345912    2.9658173 
        0.57   -3.0024864      1.23297    2.9723747 
       0.571   -3.0024865    1.2313563    2.9799511 
       0.572   -3.0024866    1.2297372    2.9875548 
       0.573   -3.0024866    1.2281016    2.9952268 
       0.574   -3.0026172    1.2264397    3.0027927 
       0.575   -3.0028782    1.2247456    3.0102737 
       0.576   -3.0030088    1.2230156    3.0180961 
       0.577   -3.0028783    1.2212487    3.0264655 
       0.578   -3.0034003     1.219448    3.0339088 
       0.579   -3.0035309    1.2176193     3.042059 
        0.58   -3.0041836    1.2157709    3.0494174 
       0.581   -3.0040531    1.2139136    3.0580087 
       0.582   -3.0040531    1.2120613    3.0663098 
       0.583   -3.0036614     1.210228    3.0750792 
       0.584   -3.0037919     1.208431    3.0827774 
       0.585    -3.003792    1.2066892    3.0903545 
       0.586    -3.003792    1.2050236    3.0975077 
       0.587   -3.0043142    1.2034541    3.1033111 
       0.588   -3.0045752    1.2020004    3.1089194 
       0.589   -3.0045752     1.200682    3.1142412 
        0.59   -3.0045752    1.1995173    3.1187735 
       0.591   -3.0045751    1.1985232    3.1224346 
       0.592   -3.0052278    1.1977169    3.1241059 
       0.593   -3.0058805    1.1971144    3.1247553 
       0.594    -3.005489    1.1967292    3.1259827 
       0.595    -3.005489    1.1965735    3.1254427 
       0.596   -3.0052279     1.196658    3.1241255 
       0.597    -3.005489     1.196992    3.1207407 
       0.598    -3.005489    1.1975838    3.1165011 
       0.599   -3.0050974    1.1984391    3.1115899 
         0.6   -3.0053585    1.1995617    3.1043275 
       0.601   -3.0053585    1.2009553    3.0961624 
       0.602    -3.005489    1.2026177    3.0864793 
       0.603   -3.0056196     1.204545    3.0755059 
       0.604   -3.0058807    1.2067312    3.0630658 
       0.605   -3.0061418    1.2091676     3.049411 
       0.606   -3.0061418    1.2118429    3.0350147 
       0.607   -3.0062723    1.2147426     3.019323 
       0.608   -3.0061418    1.2178494    3.0030428 
       0.609   -3.0062723    1.2211424    2.9854381 
        0.61   -3.0065335    1.2246003    2.9668199 
       0.611   -3.0062724    1.2282008     2.948339 
       0.612   -3.0064029    1.2319192    2.9286583 
       0.613   -3.0065335    1.2357286    2.9085276 
       0.614   -3.0066641    1.2396009    2.8880773 
       0.615   -3.0064031    1.2435094    2.8680603 
       0.616   -3.0064032    1.2474254     2.847569 
       0.617   -3.0064032    1.2513223    2.8271469 
       0.618   -3.0062727    1.2551726    2.8071282 
       0.619   -3.0058812     1.258951    2.7878406 
        0.62   -3.0058812    1.2626336    2.7683568 
       0.621   -3.0057506    1.2661981    2.7496138 
       0.622   -3.0056201    1.2696254    2.7314972 
       0.623   -3.0052284    1.2728978    2.7145077 
       0.624   -3.0052284    1.2760005    2.6976785 
       0.625   -3.0052284    1.2789181    2.6816994 
       0.626   -3.0054894    1.2816417    2.6662027 
       0.627   -3.0056197     1.284164    2.6518494 
       0.628   -3.0053588    1.2864827    2.6390767 
       0.629   -3.0052283    1.2885923     2.627071 
        0.63   -3.0053588    1.2904914    2.6156287 
       0.631   -3.0048367     1.292183     2.606195 
       0.632   -3.0048368    1.2936728     2.596877 
       0.633   -3.0052284    1.2949671    2.5878538 
       0.634   -3.0053589    1.2960726    2.5801304 
       0.635   -3.0050977    1.2970014    2.5738669 
       0.636   -3.0053589    1.2977644    2.5675563 
       0.637   -3.0052284    1.2983724    2.5626015 
       0.638   -3.0052283    1.2988376    2.5581128 
       0.639   -3.0047062    1.2991717    2.5550711 
        0.64   -3.0049673    1.2993877    2.5513348 
       0.641   -3.0052284    1.2994985    2.5480903 
       0.642    -3.005359    1.2995155     2.545487 
       0.643    -3.005359    1.2994495    2.5434677 
       0.644   -3.0056201     1.299312    2.5413513 
       0.645   -3.0056201    1.2991155    2.5399124 
       0.646   -3.0057507    1.2988678    2.5384783 
       0.647   -3.0057507    1.2985789    2.5374138 
       0.648   -3.0056202    1.2982587    2.5366688 
       0.649   -3.0058811    1.2979153    2.5353646 
        0.65     -3.00562    1.2975592    2.5349063 
       0.651   -3.0053589    1.2971995    2.5344139 
       0.652   -3.0053589    1.2968442    2.5334243 
       0.653     -3.00562    1.2965045    2.5318849 
       0.654   -3.0050979    1.2961902    2.5314086 
       0.655   -3.0047062    1.2959114    2.5304864 
       0.656   -3.0045757    1.2956807    2.5288527 
       0.657   -3.0047062    1.2955077    2.5264534 
       0.658   -3.0048367    1.2954051    2.5236452 
       0.659   -3.0048367    1.2953859    2.5205763 
        0.66   -3.0048367    1.2954636    2.5169786 
       0.661   -3.0045756    1.2956521    2.5132079 
       0.662   -3.0043145    1.2959632    2.5087939 
       0.663   -3.0043145    1.2964094    2.5032669 
       0.664   -3.0045755    1.2970012    2.4965817 
       0.665   -3.0053587    1.2977509    2.4882777 
       0.666   -3.0054893    1.2986657    2.4801975 
       0.667   -3.0056198    1.2997511    2.4712814 
       0.668   -3.0058809    1.3010105    2.4613131 
       0.669   -3.0057504    1.3024443    2.4511314 
        0.67   -3.0056198    1.3040489    2.4401352 
       0.671   -3.0056197    1.3058189    2.4281544 
       0.672   -3.0058808    1.3077436    2.4150387 
       0.673   -3.0061418    1.3098084    2.4012806 
       0.674   -3.0060113    1.3119947     2.387599 
       0.675   -3.0060113    1.3142788    2.3732762 
       0.676   -3.0058809    1.3166353    2.3588556 
       0.677    -3.005881    1.3190354    2.3440633 
       0.678   -3.0060115    1.3214469    2.3290541 
       0.679   -3.0060115    1.3238335    2.3144091 
        0.68   -3.0057505    1.3261598     2.300504 
       0.681   -3.0058811     1.328392    2.2864624 
       0.682    -3.005359    1.3304972    2.2741088 
       0.683   -3.0050979    1.3324415    2.2621435 
       0.684   -3.0045759    1.3341945    2.2515415 
       0.685   -3.0049675    1.3357319     2.240554 
       0.686   -3.0052286    1.3370306    2.2309551 
       0.687   -3.0048369    1.3380736    2.2236638 
       0.688   -3.0047064    1.3388474    2.2172917 
       0.689   -3.0052286    1.3393437    2.2112597 
        0.69   -3.0053591    1.3395631    2.2072484 
       0.691    -3.005098    1.3395036    2.2052643 
       0.692   -3.0048369    1.3391718    2.2046633 
       0.693   -3.0045759    1.3385774    2.2054087 
       0.694   -3.0041842    1.3377356    2.2076525 
       0.695   -3.0045758    1.3366613    2.2098736 
       0.696   -3.0044452    1.3353705    2.2140788 
       0.697   -3.0044452    1.3338828    2.2191434 
       0.698   -3.0044452    1.3322189    2.2251853 
       0.699   -3.0045757       1.3304    2.2319036 
         0.7   -3.0045757    1.3284486    2.2396184 
       0.701   -3.0049673    1.3263858    2.2474045 
       0.702   -3.0050978    1.3242293    2.2562159 
       0.703   -3.0049673    1.3219976     2.265967 
       0.704   -3.0047062    1.3197086    2.2763675 
       0.705   -3.0045757    1.3173789    2.2869236 
       0.706   -3.0047062    1.3150245    2.2973533 
       0.707   -3.0047062    1.3126591     2.308212 
       0.708   -3.0047061    1.3102981    2.3192217 
       0.709   -3.0043144    1.3079537    2.3309423 
        0.71   -3.0045755    1.3056393    2.3416449 
       0.711   -3.0047061    1.3033684    2.3525115 
       0.712   -3.0045755    1.3011542    2.3636849 
       0.713   -3.0035313    1.2990113    2.3761369 
       0.714   -3.0031396    1.2969535    2.3873043 
       0.715   -3.0031397     1.294995    2.3975351 
       0.716   -3.0030091    1.2931489    2.4075959 
       0.717   -3.0030091    1.2914274    2.4170078 
       0.718   -3.0031396    1.2898441     2.425709 
       0.719   -3.0037923    1.2884111    2.4330193 
        0.72   -3.0035312    1.2871387    2.4411794 
       0.721   -3.0037922    1.2860352    2.4478632 
       0.722   -3.0040532    1.2851063    2.4538772 
       0.723    -3.003531    1.2843542    2.4604577 
       0.724   -3.0036616    1.2837763    2.4653238 
       0.725   -3.0035311    1.2833682    2.4699516 
       0.726   -3.0036616    1.2831193    2.4735502 
       0.727   -3.0032701    1.2830162    2.4774237 
       0.728   -3.0036616    1.2830441    2.4795614 
       0.729   -3.0032701    1.2831828    2.4825463 
        0.73    -3.002748     1.283409    2.4854388 
       0.731   -3.0026175    1.2836981    2.4875167 
       0.732   -3.0024869     1.284021    2.4895257 
       0.733    -3.002748    1.2843503     2.490964 
       0.734   -3.0026175    1.2846565    2.4932065 
       0.735    -3.002487    1.2849104    2.4957543 
       0.736   -3.0023566    1.2850834    2.4987293 
       0.737   -3.0027481    1.2851498    2.5014117 
       0.738   -3.0026176    1.2850846    2.5055689 
       0.739   -3.0028787    1.2848669    2.5098345 
        0.74   -3.0031397    1.2844794    2.5149063 
       0.741   -3.0030092    1.2839089    2.5214643 
       0.742    -3.003662    1.2831472    2.5276734 
       0.743   -3.0035315    1.2821881    2.5360505 
       0.744    -3.003662    1.2810296    2.5449334 
       0.745   -3.0039231    1.2796749    2.5545113 
       0.746   -3.0037925     1.278132    2.5655775 
       0.747   -3.0035314    1.2764114    2.5776613 
       0.748   -3.0034009      1.27453    2.5902713 
       0.749   -3.0026175    1.2725051    2.6045698 
        0.75   -3.0023564    1.2703584    2.6185826 
       0.751   -3.0023564    1.2681134    2.6326144 
       0.752   -3.0019647    1.2657945    2.6475865 
       0.753   -3.0019646    1.2634299    2.6621217 
       0.754   -3.0018341    1.2610469    2.6769222 
       0.755   -3.0017034    1.2586735    2.6916478 
       0.756   -3.0019644    1.2563364    2.7055455 
       0.757   -3.0019644    1.2540624    2.7195276 
       0.758   -3.0020949    1.2518779    2.7328473 
       0.759   -3.0019644     1.249806    2.7460153 
        0.76   -3.0011812    1.2478699    2.7595481 
       0.761   -3.0014423    1.2460881    2.7706483 
       0.762   -3.0014423    1.2444764    2.7813136 
       0.763   -3.0015728    1.2430501    2.7908467 
       0.764    -3.001834    1.2418206    2.7991877 
       0.765    -3.002095    1.2407994    2.8064933 
       0.766   -3.0014423    1.2399916    2.8141857 
       0.767   -3.0013117    1.2394018    2.8199513 
       0.768   -3.0013118    1.2390311    2.8244011 
       0.769    -3.001834    1.2388784    2.8269089 
        0.77    -3.002095    1.2389407    2.8287292 
       0.771   -3.0020949    1.2392133    2.8298764 
       0.772    -3.002356    1.2396907     2.829539 
       0.773    -3.002356    1.2403648    2.8285772 
       0.774   -3.0024866    1.2412285    2.8263973 
       0.775   -3.0022255     1.242273    2.8238666 
       0.776   -3.0024866    1.2434892    2.8195663 
       0.777   -3.0020949     1.244869    2.8154055 
       0.778   -3.0020949    1.2464034    2.8097584 
       0.779   -3.0020949    1.2480841    2.8032859 
        0.78   -3.0020949    1.2499018    2.7960265 
       0.781   -3.0018338    1.2518478    2.7884324 
       0.782   -3.0018338    1.2539157    2.7797025 
       0.783   -3.0020949    1.2560992    2.7698663 
       0.784   -3.0023559    1.2583939     2.759365 
       0.785   -3.0017032    1.2607959    2.7496777 
       0.786   -3.0018338    1.2633002    2.7381235 
       0.787   -3.0020949    1.2659027    2.7257645 
       0.788   -3.0020949    1.2685992    2.7132452 
       0.789   -3.0023561    1.2713868    2.6997526 
        0.79   -3.0023561    1.2742615    2.6861403 
       0.791   -3.0022256    1.2772188    2.6722235 
       0.792   -3.0023561     1.280255    2.6574018 
       0.793   -3.0028783    1.2833652    2.6414943 
       0.794   -3.0028783    1.2865445    2.6259871 
       0.795   -3.0031394    1.2897853    2.6096694 
       0.796   -3.0031393     1.293082    2.5934099 
       0.797   -3.0026172    1.2964248     2.577671 
       0.798   -3.0028782    1.2998052    2.5604203 
       0.799   -3.0028783    1.3032115    2.5433773 
         0.8   -3.0027477    1.3066326    2.5263912 
       0.801   -3.0028783    1.3100573     2.508898 
       0.802   -3.0026172    1.3134727    2.4920023 
       0.803   -3.0027478    1.3168676    2.4745195 
       0.804   -3.0027478    1.3202268    2.4573522 
       0.805   -3.0024867    1.3235363    2.4407779 
       0.806   -3.0028784    1.3267838    2.4234081 
       0.807   -3.0027479    1.3299543    2.4071853 
       0.808   -3.0027479    1.3330339    2.3911382 
       0.809   -3.0023563      1.33601    2.3761642 
        0.81   -3.0026173    1.3388721    2.3606607 
       0.811   -3.0027479    1.3416062    2.3459407 
       0.812   -3.0026175    1.3442012    2.3322714 
       0.813   -3.0031396    1.3466464    2.3182542 
       0.814   -3.0034007    1.3489307    2.3054013 
       0.815   -3.0034007    1.3510422    2.2937688 
       0.816   -3.0031397    1.3529702    2.2834097 
       0.817   -3.0032702    1.3547049     2.273334 
       0.818   -3.0034008    1.3562378    2.2642125 
       0.819    -3.003662    1.3575599    2.2558831 
        0.82   -3.0035315    1.3586651    2.2492171 
       0.821   -3.0032703    1.3595431    2.2438424 
       0.822   -3.0032704     1.360186    2.2391713 
       0.823   -3.0031399    1.3605867    2.2358605 
       0.824   -3.0027482    1.3607418    2.2341395 
       0.825   -3.0027481    1.3606472    2.2329854 
       0.826   -3.0030092    1.3603012     2.232613 
       0.827   -3.0026177    1.3597045    2.2344721 
       0.828   -3.0026175    1.3588613    2.2368789 
       0.829   -3.0026175    1.3577817    2.2404159 
        0.83   -3.0019647    1.3564779    2.2460674 
       0.831   -3.0019648    1.3549647    2.2516796 
       0.832   -3.0019647    1.3532633    2.2581959 
       0.833   -3.0020953    1.3513999    2.2652887 
       0.834   -3.0020952    1.3494067    2.2732324 
       0.835   -3.0022258    1.3473204    2.2814491 
       0.836   -3.0023563    1.3451796    2.2899718 
       0.837   -3.0019647    1.3430264    2.2994438 
       0.838   -3.0018341    1.3409047    2.3084196 
       0.839   -3.0018341      1.33886    2.3169065 
        0.84   -3.0014425    1.3369371    2.3255395 
       0.841   -3.0014425    1.3351781    2.3328854 
       0.842   -3.0014424    1.3336199    2.3394031 
       0.843   -3.0013118    1.3322946    2.3451582 
       0.844   -3.0009202    1.3312289    2.3502441 
       0.845   -3.0006591    1.3304401    2.3539588 
       0.846   -3.0007895    1.3299391    2.3558411 
       0.847   -3.0002674     1.329727    2.3575488 
       0.848    -3.000137    1.3297986    2.3574442 
       0.849   -2.9998759    1.3301395    2.3564218 
        0.85    -3.000137    1.3307277    2.3535335 
       0.851   -2.9998759    1.3315386    2.3505556 
       0.852   -2.9998761    1.3325437    2.3463698 
       0.853   -3.0000066    1.3337108    2.3413283 
       0.854   -2.9998762    1.3350047    2.3362089 
       0.855   -2.9998762    1.3363912    2.3305418 
       0.856   -3.0002679    1.3378367    2.3240626 
       0.857   -3.0002679    1.3393096    2.3181652 
       0.858   -3.0003985     1.340779    2.3121569 
       0.859   -3.0005291    1.3422179    2.3063726 
        0.86   -3.0009207    1.3436024    2.3005106 
       0.861   -3.0011817    1.3449084     2.295302 
       0.862   -3.0009207    1.3461171    2.2914604 
       0.863   -3.0009206    1.3472103    2.2878184 
       0.864   -3.0009206    1.3481742    2.2848577 
       0.865   -3.0007901    1.3489998    2.2828355 
       0.866   -3.0006595    1.3496792    2.2815844 
       0.867    -3.000268    1.3502052    2.2815514 
       0.868    -3.000529    1.3505744    2.2812997 
       0.869   -2.9998763    1.3507859    2.2833328 
        0.87   -2.9992235    1.3508408    2.2861933 
       0.871    -2.999093      1.35074    2.2890423 
       0.872   -2.9994846    1.3504863    2.2918649 
       0.873   -2.9997456    1.3500867    2.2956745 
       0.874   -2.9997456    1.3495479     2.300649 
       0.875    -2.999615    1.3488777    2.3065443 
       0.876   -2.9994845    1.3480851    2.3131116 
       0.877   -2.9990929    1.3471799    2.3207224 
       0.878   -2.9992234    1.3461722    2.3280809 
       0.879   -2.9997455    1.3450713     2.335348 
        0.88   -2.9993539    1.3438898    2.3445498 
       0.881   -2.9990928    1.3426378    2.3539722 
       0.882   -2.9994844     1.341325    2.3627342 
       0.883   -2.9997454    1.3399608    2.3720356 
       0.884   -2.9994843    1.3385558    2.3824521 
       0.885   -2.9993538    1.3371189    2.3928995 
       0.886   -2.9993537     1.335657    2.4033395 
       0.887   -2.9996148    1.3341768    2.4135285 
       0.888   -2.9996149    1.3326833    2.4242689 
       0.889   -2.9994844    1.3311819    2.4353253 
        0.89   -2.9989622    1.3296757    2.4470942 
       0.891   -2.9990928    1.3281681    2.4578943 
       0.892   -2.9985707    1.3266603    2.4697964 
       0.893   -2.9981791    1.3251513    2.4815493 
       0.894   -2.9984402    1.3236399    2.4923228 
       0.895   -2.9981792    1.3221218     2.503998 
       0.896   -2.9980487    1.3205944    2.5155444 
       0.897   -2.9980487    1.3190516    2.5269802 
       0.898   -2.9979181    1.3174884    2.5387393 
       0.899    -2.997396    1.3159001    2.5512575 
         0.9   -2.9971349    1.3142798    2.5635187 
       0.901    -2.997396    1.3126202    2.5751327 
       0.902   -2.9970044    1.3109145    2.5879962 
       0.903   -2.9972655    1.3091579    2.6000508 
       0.904   -2.9968739    1.3073427    2.6134008 
       0.905   -2.9967433    1.3054639    2.6266096 
       0.906   -2.9968739    1.3035177    2.6396918 
       0.907   -2.9964823    1.3015003    2.6539076 
       0.908   -2.9959601    1.2994095    2.6686399 
       0.909   -2.9959601    1.2972428    2.6828521 
        0.91     -2.99596    1.2950011    2.6973715 
       0.911   -2.9960906    1.2926856    2.7119797 
       0.912   -2.9958296    1.2902986    2.7274937 
       0.913   -2.9958295    1.2878439    2.7428519 
       0.914   -2.9955685    1.2853271     2.758858 
       0.915   -2.9955685    1.2827562    2.7746448 
       0.916   -2.9951768    1.2801407    2.7912113 
       0.917   -2.9950463    1.2774886    2.8074765 
       0.918   -2.9954379    1.2748087    2.8229801 
       0.919     -2.99596    1.2721112    2.8382987 
        0.92   -2.9955684    1.2694043    2.8550503 
       0.921   -2.9953072    1.2666981     2.871523 
       0.922   -2.9955684    1.2640031    2.8870439 
       0.923   -2.9955683    1.2613279    2.9028168 
       0.924   -2.9953073    1.2586813    2.9187984 
       0.925   -2.9953073    1.2560717    2.9341159 
       0.926   -2.9953073    1.2535064    2.9491481 
       0.927   -2.9950462    1.2509908    2.9642784 
       0.928   -2.9949157    1.2485315    2.9788497 
       0.929   -2.9949157    1.2461332    2.9928316 
        0.93   -2.9947851    1.2438013    3.0066091 
       0.931    -2.994263    1.2415427    3.0205628 
       0.932    -2.994263    1.2393663     3.033195 
       0.933   -2.9942631    1.2372792    3.0452946 
       0.934    -2.994263    1.2352942     3.056803 
       0.935    -2.994263    1.2334254    3.0676525 
       0.936   -2.9942629    1.2316893    3.0777618 
       0.937   -2.9943934    1.2301072    3.0868258 
       0.938    -2.994524    1.2287029    3.0949405 
       0.939   -2.9946545     1.227505    3.1019779 
        0.94   -2.9946545    1.2265447    3.1080065 
       0.941   -2.9947849    1.2258559    3.1124607 
       0.942   -2.9946543     1.225474    3.1158111 
       0.943   -2.9946543    1.2254331    3.1172851 
       0.944   -2.9943932    1.2257635    3.1173711 
       0.945   -2.9941321    1.2264914    3.1155372 
       0.946   -2.9946542    1.2276388    3.1104437 
       0.947   -2.9945237    1.2292192    3.1043228 
       0.948   -2.9946542    1.2312365    3.0957043 
       0.949   -2.9946542    1.2336848    3.0852422 
        0.95   -2.9946542    1.2365484    3.0728032 
       0.951   -2.9946542    1.2398024    3.0585054 
       0.952   -2.9945237    1.2434104    3.0427192 
       0.953   -2.9945238    1.2473289    3.0252255 
       0.954   -2.9943933      1.25151    3.0066619 
       0.955   -2.9941322    1.2559008    2.9872711 
       0.956   -2.9940016    1.2604449     2.966892 
       0.957   -2.9940017    1.2650869    2.9457808 
       0.958   -2.9941322    1.2697706    2.9241919 
       0.959   -2.9941322    1.2744449    2.9027813 
        0.96   -2.9938712    1.2790615    2.8819823 
       0.961   -2.9941322    1.2835768    2.8607517 
       0.962   -2.9938711    1.2879536    2.8409347 
       0.963   -2.9941322    1.2921579    2.8210278 
       0.964   -2.9942627    1.2961633    2.8022039 
       0.965   -2.9941322    1.2999474    2.7847827 
       0.966   -2.9941322    1.3034945    2.7682264 
       0.967   -2.9938711    1.3067925    2.7532255 
       0.968   -2.9937406    1.3098345    2.7392015 
       0.969   -2.9942627    1.3126157    2.7253528 
        0.97   -2.9937405    1.3151371    2.7143947 
       0.971   -2.9936099     1.317401    2.7040384 
       0.972   -2.9938711     1.319413    2.6942709 
       0.973   -2.9942627    1.3211783    2.6854889 
       0.974   -2.9940015    1.3227066    2.6789088 
       0.975   -2.9942626    1.3240059    2.6726252 
       0.976   -2.9942625    1.3250872    2.6678454 
       0.977   -2.9942625    1.3259602    2.6641128 
       0.978   -2.9947846    1.3266353    2.6605527 
       0.979   -2.9949152    1.3271238     2.658577 
        0.98   -2.9951762    1.3274338    2.6573158 
       0.981   -2.9955679    1.3275736     2.656732 
       0.982   -2.9954373    1.3275503    2.6578331 
       0.983   -2.9954373    1.3273728    2.6595454 
       0.984   -2.9951762    1.3270452    2.6624695 
       0.985   -2.9955678     1.326571    2.6651293 
       0.986   -2.9958289    1.3259535     2.668755 
       0.987   -2.9958288    1.3251944    2.6735411 
       0.988   -2.9956983    1.3242965    2.6792649 
       0.989   -2.9959593     1.323263    2.6850793 
        0.99   -2.9959594    1.3220942    2.6920126 
       0.991   -2.9962205     1.320793    2.6992149 
       0.992    -2.996351    1.3193648    2.7072857 
       0.993   -2.9958289    1.3178141    2.7170296 
       0.994   -2.9958289    1.3161462    2.7265413 
       0.995   -2.9959594    1.3143696    2.7364004 
       0.996   -2.9956983    1.3124965    2.7473834 
       0.997   -2.9959594    1.3105387     2.757972 
       0.998   -2.9960899    1.3085112     2.769133 
       0.999   -2.9958288    1.3064318    2.7811981 
           1   -2.9956983    1.3043222    2.7932389 
       1.001   -2.9956983    1.3022027    2.8051565 
       1.002   -2.9954372    1.3000963    2.8174677 
       1.003   -2.9953067    1.2980307    2.8294302 
       1.004   -2.9954371    1.2960313    2.8407209 
       1.005   -2.9955676    1.2941222    2.8516417 
       1.006   -2.9953066    1.2923281     2.862704 
       1.007   -2.9953066    1.2906722    2.8727605 
       1.008   -2.9951761    1.2891761     2.882336 
       1.009   -2.9947845    1.2878605    2.8915471 
        1.01   -2.9942623    1.2867426     2.900109 
       1.011   -2.9947844    1.2858371    2.9060859 
       1.012   -2.9949149    1.2851535    2.9117218 
       1.013   -2.9945233    1.2846987    2.9171969 
       1.014   -2.9941317    1.2844744    2.9216726 
       1.015   -2.9938706    1.2844779    2.9249543 
       1.016     -2.99374    1.2847029    2.9270753 
       1.017   -2.9937401    1.2851366    2.9280915 
       1.018   -2.9937401    1.2857633     2.928285 
       1.019   -2.9937401    1.2865615    2.9277511 
        1.02   -2.9941318    1.2875064    2.9259771 
       1.021   -2.9941317    1.2885721    2.9243342 
       1.022   -2.9942623    1.2897279    2.9221289 
       1.023   -2.9942623    1.2909405    2.9199276 
       1.024   -2.9945234    1.2921742    2.9172647 
       1.025   -2.9945234    1.2933938    2.9151335 
       1.026   -2.9942624    1.2945629    2.9136989 
       1.027   -2.9942625    1.2956459    2.9122927 
       1.028   -2.9946542    1.2966074    2.9108689 
       1.029   -2.9946543    1.2974133    2.9108321 
        1.03   -2.9942626    1.2980304    2.9123337 
       1.031   -2.9942627    1.2984268    2.9142682 
       1.032   -2.9946543    1.2985715    2.9167717 
       1.033   -2.9946543    1.2984393    2.9212098 
       1.034   -2.9947848    1.2980057    2.9268595 
       1.035   -2.9946544    1.2972498    2.9344381 
       1.036    -2.994785    1.2961526    2.9431942 
       1.037   -2.9949155    1.2947005    2.9536053 
       1.038   -2.9955683    1.2928833    2.9648835 
       1.039   -2.9956989    1.2906916    2.9787245 
        1.04   -2.9955684    1.2881225    2.9947217 
       1.041    -2.995699    1.2851764    3.0120343 
       1.042   -2.9954379     1.281858    3.0316745 
       1.043   -2.9955684    1.2781758    3.0523468 
       1.044   -2.9955683    1.2741413     3.074819 
       1.045   -2.9956989    1.2697722    3.0985874 
       1.046   -2.9955682    1.2650898    3.1241712 
       1.047   -2.9956987    1.2601188    3.1506159 
       1.048   -2.9960903    1.2548876    3.1777822 
       1.049   -2.9962208    1.2494302    3.2063443 
        1.05   -2.9962208    1.2437808    3.2359274 
       1.051   -2.9964819    1.2379762      3.26573 
       1.052   -2.9960903    1.2320544    3.2970228 
       1.053   -2.9963513    1.2260564    3.3275331 
       1.054   -2.9966123    1.2200232    3.3581062 
       1.055   -2.9968735    1.2139945    3.3885505 
       1.056    -2.997004    1.2080093    3.4188865 
       1.057    -2.997004    1.2021029    3.4489361 
       1.058   -2.9966124    1.1963105    3.4789436 
       1.059   -2.9964818    1.1906661    3.5077064 
        1.06   -2.9966123       1.1852    3.5350759 
       1.061   -2.9966123    1.1799381    3.5615425 
       1.062   -2.9964817    1.1749059    3.5869821 
       1.063   -2.9966122    1.1701253    3.6106607 
       1.064   -2.9962206    1.1656142    3.6337308 
       1.065   -2.9962206    1.1613887    3.6546511 
       1.066   -2.9959595    1.1574616    3.6743874 
       1.067   -2.9958289    1.1538465     3.692246 
       1.068   -2.9959594    1.1505561    3.7079549 
       1.069   -2.9962205    1.1476007    3.7216651 
        1.07   -2.9959594    1.1449908    3.7343623 
       1.071   -2.9958289     1.142737    3.7449542 
       1.072   -2.9959594    1.1408486    3.7531839 
       1.073   -2.9959594     1.139335    3.7596281 
       1.074     -2.99609    1.1382062    3.7638245 
       1.075   -2.9959594    1.1374719    3.7663527 
       1.076   -2.9967426    1.1371425    3.7652981 
       1.077   -2.9964816    1.1372258    3.7637456 
       1.078   -2.9964815    1.1377292    3.7595842 
       1.079   -2.9968732    1.1386603    3.7525791 
        1.08   -2.9972648    1.1400243    3.7433377 
       1.081   -2.9972647     1.141824    3.7324767 
       1.082   -2.9973953    1.1440602    3.7191674 
       1.083   -2.9971342    1.1467337    3.7042526 
       1.084   -2.9970037     1.149839    3.6869292 
       1.085   -2.9972648    1.1533692    3.6668214 
       1.086   -2.9973953     1.157316    3.6448118 
       1.087   -2.9975259    1.1616666    3.6207596 
       1.088   -2.9975259     1.166407    3.5949509 
       1.089   -2.9971344    1.1715189    3.5678947 
        1.09   -2.9973954    1.1769825    3.5380317 
       1.091   -2.9970039    1.1827745    3.5075593 
       1.092   -2.9970038    1.1888703    3.4749412 
       1.093   -2.9963512    1.1952435    3.4419777 
       1.094   -2.9963513    1.2018645     3.406737 
       1.095   -2.9968735     1.208704    3.3695801 
       1.096   -2.9967429    1.2157292    3.3325416 
       1.097   -2.9968734    1.2229058    3.2943338 
       1.098   -2.9967429    1.2301994    3.2559603 
       1.099   -2.9966124    1.2375747    3.2171794 
         1.1   -2.9963514    1.2449967    3.1783739 
       1.101   -2.9964819    1.2524299    3.1388868 
       1.102   -2.9964819    1.2598413    3.0997202 
       1.103   -2.9962209    1.2671967     3.061252 
       1.104   -2.9960904    1.2744617    3.0230254 
       1.105   -2.9956989    1.2816057    2.9858223 
       1.106   -2.9958295    1.2885967    2.9485503 
       1.107    -2.995699    1.2954065     2.912602 
       1.108   -2.9959601    1.3020071    2.8770761 
       1.109   -2.9956989    1.3083738    2.8435564 
        1.11   -2.9953074    1.3144844    2.8115356 
       1.111    -2.995438    1.3203175    2.7800834 
       1.112    -2.995438    1.3258522    2.7503412 
       1.113   -2.9955685    1.3310704    2.7219828 
       1.114   -2.9956991    1.3359576    2.6952938 
       1.115   -2.9955686    1.3405024     2.670755 
       1.116   -2.9955686    1.3446929    2.6478008 
       1.117   -2.9955687    1.3485215    2.6266844 
       1.118   -2.9959602    1.3519811    2.6068188 
       1.119   -2.9963518    1.3550675    2.5888537 
        1.12   -2.9967434     1.357777    2.5728073 
       1.121   -2.9967435    1.3601092     2.559311 
       1.122    -2.996874     1.362067    2.5475286 
       1.123   -2.9967435    1.3636525    2.5380753 
       1.124   -2.9967434    1.3648676    2.5303133 
       1.125    -2.996874    1.3657174    2.5242186 
       1.126    -2.997135    1.3662097    2.5197581 
       1.127    -2.997135    1.3663522    2.5175185 
       1.128   -2.9972655    1.3661554    2.5168297 
       1.129    -2.997135    1.3656302     2.518265 
        1.13   -2.9976571    1.3647859     2.520317 
       1.131   -2.9975266    1.3636355    2.5250041 
       1.132   -2.9975267     1.362191    2.5310167 
       1.133   -2.9976572    1.3604672    2.5382849 
       1.134   -2.9980488    1.3584798    2.5465278 
       1.135   -2.9973961    1.3562457    2.5577474 
       1.136   -2.9968738     1.353778    2.5699988 
       1.137   -2.9968738    1.3510932    2.5825771 
       1.138   -2.9972654    1.3482055    2.5956124 
       1.139   -2.9972654    1.3451307    2.6102707 
        1.14   -2.9975264    1.3418867    2.6254259 
       1.141   -2.9973958    1.3384894    2.6420341 
       1.142   -2.9972653     1.334955    2.6593874 
       1.143   -2.9973958    1.3313014    2.6769826 
       1.144   -2.9975264     1.327545    2.6951508 
       1.145   -2.9971349    1.3237034    2.7146383 
       1.146   -2.9968738    1.3197925    2.7343227 
       1.147   -2.9973959    1.3158289     2.753081 
       1.148   -2.9968737    1.3118289    2.7737439 
       1.149   -2.9970042    1.3078057    2.7935323 
        1.15   -2.9972653    1.3037732    2.8132038 
       1.151   -2.9976568    1.2997477    2.8326816 
       1.152   -2.9977874    1.2957425    2.8525191 
       1.153   -2.9975264    1.2917697    2.8728582 
       1.154   -2.9972653    1.2878423     2.893009 
       1.155   -2.9973958     1.283972    2.9122853 
       1.156   -2.9975263    1.2801692    2.9312535 
       1.157   -2.9972652    1.2764463    2.9504788 
       1.158   -2.9975263    1.2728141    2.9684509 
       1.159   -2.9970042    1.2692822    2.9872002 
        1.16   -2.9971347    1.2658604    3.0043903 
       1.161   -2.9970041     1.262555     3.021437 
       1.162   -2.9975262    1.2593735     3.036845 
       1.163   -2.9975262    1.2563234    3.0524486 
       1.164   -2.9977872    1.2534097    3.0669693 
       1.165   -2.9979178    1.2506397    3.0809995 
       1.166   -2.9981789    1.2480172    3.0941003 
       1.167   -2.9977872    1.2455461    3.1074993 
       1.168   -2.9979178    1.2432289    3.1193095 
       1.169   -2.9977872    1.2410676    3.1307678 
        1.17   -2.9981788    1.2390623    3.1406214 
       1.171   -2.9980482    1.2372142    3.1505311 
       1.172   -2.9977871    1.2355225    3.1598761 
       1.173   -2.9979177     1.233984    3.1678345 
       1.174   -2.9976566    1.2325949    3.1756691 
       1.175   -2.9975261    1.2313518    3.1825645 
       1.176    -2.997265    1.2302504    3.1889586 
       1.177   -2.9973955    1.2292848    3.1940459 
       1.178   -2.9977872    1.2284482    3.1980657 
       1.179   -2.9972651    1.2277324     3.202925 
        1.18   -2.9972651    1.2271285    3.2063748 
       1.181   -2.9976567    1.2266274     3.208664 
       1.182    -2.997004    1.2262204    3.2121228 
       1.183   -2.9971346    1.2258975    3.2138847 
       1.184   -2.9973956    1.2256482    3.2150372 
       1.185   -2.9973957    1.2254617    3.2162525 
       1.186   -2.9972652    1.2253286    3.2173699 
       1.187   -2.9971347    1.2252374    3.2182318 
       1.188   -2.9966126    1.2251797    3.2195075 
       1.189    -2.996482    1.2251438    3.2199992 
        1.19   -2.9964821    1.2251185    3.2201715 
       1.191   -2.9956988    1.2250942    3.2215256 
       1.192   -2.9955683    1.2250638    3.2218129 
       1.193    -2.996221    1.2250164    3.2208695 
       1.194   -2.9963515    1.2249439    3.2208129 
       1.195   -2.9964821    1.2248383    3.2208455 
       1.196    -2.996482    1.2246927    3.2212058 
       1.197   -2.9968736    1.2245025    3.2210849 
       1.198    -2.996743    1.2242643    3.2219574 
       1.199   -2.9968735    1.2239743    3.2225899 
         1.2    -2.997004    1.2236304    3.2234067 
       1.201    -2.997004    1.2232329    3.2246163 
       1.202   -2.9973957    1.2227809    3.2253841 
       1.203   -2.9979178    1.2222781    3.2261126 
       1.204   -2.9976567    1.2217284    3.2282386 
       1.205   -2.9979178    1.2211374    3.2296564 
       1.206   -2.9976567    1.2205119    3.2319978 
       1.207   -2.9976567    1.2198616    3.2339744 
       1.208   -2.9977872    1.2191966     3.235749 
       1.209   -2.9976567    1.2185282     3.237896 
        1.21   -2.9976567    1.2178676    3.2397386 
       1.211   -2.9973956    1.2172292    3.2418418 
       1.212   -2.9979178    1.2166262    3.2424818 
       1.213   -2.9980483    1.2160717     3.243472 
       1.214   -2.9973957    1.2155791    3.2453766 
       1.215   -2.9971346    1.2151618     3.246265 
       1.216   -2.9971345    1.2148319    3.2462907 
       1.217   -2.9976567    1.2146015    3.2449854 
       1.218   -2.9975262    1.2144821    3.2441732 
       1.219   -2.9973956    1.2144832    3.2427736 
        1.22   -2.9972651    1.2146132    3.2407513 
       1.221   -2.9973955     1.214879    3.2376631 
       1.222   -2.9971345     1.215285    3.2345301 
       1.223   -2.9976566    1.2158348    3.2294683 
       1.224   -2.9976566    1.2165296    3.2245541 
       1.225   -2.9973955    1.2173686    3.2193766 
       1.226   -2.9970039    1.2183529    3.2137347 
       1.227   -2.9968733    1.2194787    3.2070235 
       1.228   -2.9966123    1.2207402    3.1998941 
       1.229   -2.9967428    1.2221307    3.1915462 
        1.23   -2.9968734    1.2236433    3.1826399 
       1.231   -2.9971345    1.2252707    3.1730063 
       1.232   -2.9970039     1.227003    3.1635237 
       1.233   -2.9967428     1.228832    3.1538211 
       1.234   -2.9964817    1.2307474    3.1437408 
       1.235   -2.9963512    1.2327391    3.1331253 
       1.236   -2.9964817    1.2347981    3.1218166 
       1.237   -2.9964817    1.2369143    3.1104901 
       1.238   -2.9964817    1.2390771    3.0989896 
       1.239   -2.9960901    1.2412759    3.0879906 
        1.24   -2.9959595     1.243501    3.0765022 
       1.241   -2.9959596    1.2457446    3.0647774 
       1.242   -2.9960901    1.2479971    3.0528625 
       1.243   -2.9960902    1.2502504    3.0412159 
       1.244   -2.9963513    1.2524965    3.0292546 
       1.245   -2.9963513    1.2547289    3.0178479 
       1.246   -2.9963513    1.2569411    3.0066148 
       1.247   -2.9960902    1.2591283    2.9960032 
       1.248   -2.9955681    1.2612833    2.9860465 
       1.249   -2.9958292    1.2634017    2.9751098 
        1.25   -2.9960904    1.2654784    2.9644706 
       1.251   -2.9960904    1.2675067    2.9545762 
       1.252   -2.9962208    1.2694813    2.9448324 
       1.253   -2.9960902    1.2713982    2.9358908 
       1.254   -2.9962208    1.2732492    2.9269547 
       1.255   -2.9962208    1.2750278    2.9186819 
       1.256   -2.9963513    1.2767273    2.9106922 
       1.257   -2.9964818    1.2783393     2.903233 
       1.258   -2.9972649    1.2798565    2.8953046 
       1.259   -2.9972648    1.2812683    2.8892411 
        1.26   -2.9971342    1.2825639    2.8840512 
       1.261   -2.9968732    1.2837321    2.8797853 
       1.262   -2.9971343    1.2847605    2.8754572 
       1.263   -2.9967427    1.2856365    2.8729938 
       1.264   -2.9967427    1.2863483    2.8707843 
       1.265   -2.9967427     1.286883    2.8695074 
       1.266   -2.9963511    1.2872285    2.8698395 
       1.267     -2.99609     1.287371     2.871001 
       1.268   -2.9962205    1.2872993    2.8726213 
       1.269   -2.9962205    1.2870031    2.8755729 
        1.27   -2.9956983    1.2864727    2.8805137 
       1.271   -2.9959594    1.2856997    2.8853909 
       1.272   -2.9960899    1.2846796    2.8916738 
       1.273   -2.9964815    1.2834099    2.8987412 
       1.274   -2.9964815    1.2818884    2.9076274 
       1.275    -2.996612    1.2801177    2.9174779 
       1.276   -2.9964814    1.2781026    2.9288804 
       1.277   -2.9963508    1.2758536    2.9413645 
       1.278   -2.9963508    1.2733809    2.9546566 
       1.279   -2.9967424    1.2707015    2.9682541 
        1.28   -2.9966118    1.2678348    2.9835123 
       1.281   -2.9967423    1.2648032    2.9990665 
       1.282   -2.9963506    1.2616337    3.0160311 
       1.283   -2.9963506    1.2583545    3.0328052 
       1.284   -2.9964811    1.2549992    3.0496432 
       1.285   -2.9968727    1.2516002     3.066169 
       1.286   -2.9970032    1.2481963    3.0830319 
       1.287   -2.9970032    1.2448262    3.0998357 
       1.288   -2.9968725     1.241528    3.1163913 
       1.289   -2.9968725    1.2383414    3.1320901 
        1.29   -2.9968725    1.2353058    3.1469493 
       1.291   -2.9966114    1.2324611     3.161197 
       1.292   -2.9966114    1.2298434    3.1738247 
       1.293   -2.9968725     1.227488    3.1846648 
       1.294   -2.9967419    1.2254267    3.1946037 
       1.295   -2.9966115    1.2236869    3.2028825 
       1.296   -2.9968725     1.222294    3.2087571 
       1.297   -2.9970029    1.2212681    3.2129612 
       1.298   -2.9971334     1.220625     3.215209 
       1.299   -2.9970028    1.2203763    3.2158597 
         1.3   -2.9968723    1.2205267    3.2144656 
       1.301   -2.9966113    1.2210805    3.2112184 
       1.302   -2.9967418    1.2220338    3.2052961 
       1.303   -2.9964807    1.2233814    3.1979721 
       1.304   -2.9967418    1.2251135    3.1878356 
       1.305   -2.9968724    1.2272172    3.1759879 
       1.306   -2.9967419    1.2296752    3.1627152 
       1.307   -2.9962198    1.2324688    3.1483157 
       1.308   -2.9964808     1.235576    3.1310204 
       1.309   -2.9964809    1.2389737    3.1126046 
        1.31   -2.9963503    1.2426368    3.0929813 
       1.311   -2.9963504    1.2465397    3.0718599 
       1.312   -2.9970031    1.2506561    3.0485395 
       1.313   -2.9970032    1.2549586    3.0252351 
       1.314   -2.9970032    1.2594182    3.0010464 
       1.315   -2.9971338    1.2640077    2.9759035 
       1.316   -2.9967422    1.2686997    2.9509846 
       1.317   -2.9964812    1.2734654    2.9253904 
       1.318   -2.9964812    1.2782778    2.8990503 
       1.319   -2.9964812    1.2831106    2.8725149 
        1.32   -2.9967424    1.2879381    2.8455004 
       1.321   -2.9964814    1.2927353    2.8193845 
       1.322   -2.9960899    1.2974783    2.7936685 
       1.323   -2.9962204    1.3021435    2.7674353 
       1.324   -2.9962204     1.306707    2.7418455 
       1.325   -2.9960898    1.3111475    2.7170125 
       1.326   -2.9951761    1.3154438    2.6940871 
       1.327   -2.9953066    1.3195769    2.6702614 
       1.328   -2.9951761    1.3235269    2.6477173 
       1.329   -2.9950456    1.3272753    2.6261353 
        1.33   -2.9949151    1.3308039    2.6056075 
       1.331   -2.9950457    1.3340978    2.5858009 
       1.332   -2.9946541    1.3371418    2.5680423 
       1.333   -2.9946542     1.339922    2.5509482 
       1.334   -2.9943931     1.342426     2.535624 
       1.335   -2.9945237    1.3446443    2.5210839 
       1.336   -2.9945236    1.3465681    2.5082083 
       1.337   -2.9947847    1.3481893    2.4964128 
       1.338   -2.9950458    1.3495034    2.4861415 
       1.339   -2.9951763    1.3505072    2.4776201 
        1.34   -2.9945236    1.3511999    2.4718947 
       1.341    -2.994393    1.3515855     2.466875 
       1.342   -2.9945236     1.351668    2.4629578 
       1.343   -2.9949153    1.3514572    2.4601047 
       1.344   -2.9945236    1.3509648    2.4599295 
       1.345   -2.9946541    1.3502059     2.460285 
       1.346   -2.9950457    1.3492003    2.4615034 
       1.347   -2.9951762    1.3479675    2.4643235 
       1.348   -2.9947846    1.3465321      2.46905 
       1.349   -2.9947846    1.3449217    2.4741031 
        1.35   -2.9949151    1.3431653    2.4797646 
       1.351   -2.9953067    1.3412953    2.4856801 
       1.352   -2.9954372    1.3393468    2.4925275 
       1.353   -2.9953067    1.3373533     2.500151 
       1.354   -2.9955677    1.3353501    2.5073523 
       1.355   -2.9954371    1.3333717    2.5152238 
       1.356    -2.995437    1.3314516    2.5227835 
       1.357   -2.9953065    1.3296201    2.5303094 
       1.358   -2.9953063    1.3279052    2.5372601 
       1.359   -2.9943925    1.3263305    2.5451923 
        1.36   -2.9941315    1.3249153    2.5515226 
       1.361   -2.9946538    1.3236724    2.5559809 
       1.362   -2.9947843    1.3226092    2.5604012 
       1.363   -2.9946538    1.3217273    2.5645624 
       1.364   -2.9947843    1.3210222     2.567645 
       1.365   -2.9951759    1.3204869    2.5696809 
       1.366   -2.9953065    1.3201069    2.5715587 
       1.367   -2.9953064    1.3198647    2.5731447 
       1.368    -2.995437     1.319739    2.5741119 
       1.369   -2.9949148    1.3197055    2.5758099 
        1.37   -2.9953064    1.3197396     2.575849 
       1.371   -2.9954371    1.3198142    2.5762136 
       1.372   -2.9950456    1.3199055    2.5774259 
       1.373   -2.9947845    1.3199892     2.578551 
       1.374    -2.994654    1.3200413     2.579687 
       1.375   -2.9942624    1.3200413    2.5815449 
       1.376   -2.9941319    1.3199719    2.5833658 
       1.377   -2.9945234    1.3198187    2.5847934 
       1.378    -2.994654    1.3195721    2.5871178 
       1.379   -2.9947845    1.3192245     2.589952 
        1.38    -2.994915     1.318773    2.5933075 
       1.381    -2.994915    1.3182159    2.5973919 
       1.382   -2.9950455    1.3175563    2.6017721 
       1.383   -2.9953065    1.3168019    2.6064148 
       1.384   -2.9955676    1.3159606    2.6114863 
       1.385   -2.9955676    1.3150433    2.6173491 
       1.386   -2.9954371    1.3140646      2.62373 
       1.387   -2.9949149    1.3130404    2.6309724 
       1.388   -2.9950454    1.3119866     2.637335 
       1.389   -2.9949148    1.3109213    2.6441911 
        1.39   -2.9950453    1.3098619    2.6506238 
       1.391   -2.9954369    1.3088261     2.656548 
       1.392   -2.9950452    1.3078332    2.6635399 
       1.393   -2.9954368    1.3069011    2.6690195 
       1.394   -2.9950451     1.306048    2.6754008 
       1.395   -2.9953062    1.3052898    2.6803213 
       1.396   -2.9955672    1.3046414    2.6847523 
       1.397   -2.9956977    1.3041148     2.688844 
       1.398   -2.9958283    1.3037215    2.6923375 
       1.399   -2.9959588    1.3034694     2.695195 
         1.4   -2.9962199    1.3033632    2.6971837 
       1.401   -2.9962198    1.3034058    2.6989135 
       1.402   -2.9958282    1.3035971    2.7005916 
       1.403   -2.9959587    1.3039353    2.7007724 
       1.404   -2.9962198     1.304415    2.7001042 
       1.405   -2.9959587    1.3050275    2.6996641 
       1.406   -2.9958282    1.3057631    2.6984581 
       1.407   -2.9954366    1.3066101    2.6971666 
       1.408   -2.9956977    1.3075543    2.6943986 
       1.409   -2.9953061    1.3085789    2.6923084 
        1.41   -2.9959589    1.3096678    2.6882692 
       1.411   -2.9960895    1.3108048    2.6848566 
       1.412   -2.9958284    1.3119702    2.6819497 
       1.413   -2.9960894    1.3131458    2.6781774 
       1.414   -2.9960895    1.3143128    2.6748728 
       1.415    -2.995959    1.3154521    2.6719128 
       1.416   -2.9956979    1.3165472    2.6693752 
       1.417   -2.9962201    1.3175821    2.6658777 
       1.418   -2.9962201    1.3185423     2.663568 
       1.419   -2.9960895    1.3194152    2.6618821 
        1.42   -2.9955675    1.3201897    2.6612885 
       1.421   -2.9955674    1.3208565    2.6603751 
       1.422   -2.9960895    1.3214089    2.6591765 
       1.423    -2.995959    1.3218409    2.6595909 
       1.424   -2.9963506    1.3221479    2.6597658 
       1.425   -2.9964812    1.3223289    2.6609554 
       1.426   -2.9966117     1.322384    2.6627434 
       1.427   -2.9968727    1.3223147    2.6649133 
       1.428   -2.9971338    1.3221252    2.6676551 
       1.429   -2.9972643     1.321821    2.6711523 
        1.43   -2.9970032    1.3214085    2.6757908 
       1.431   -2.9971338     1.320896    2.6802864 
       1.432   -2.9970033    1.3202911    2.6856416 
       1.433   -2.9968727     1.319604    2.6913968 
       1.434   -2.9970032    1.3188424    2.6970966 
       1.435   -2.9970031    1.3180156     2.703322 
       1.436   -2.9970031    1.3171311    2.7098266 
       1.437   -2.9968726    1.3161958    2.7167823 
       1.438   -2.9971337    1.3152154    2.7233259 
       1.439   -2.9971337    1.3141933     2.730472 
        1.44   -2.9970032    1.3131348    2.7379876 
       1.441   -2.9973948    1.3120431    2.7448141 
       1.442   -2.9973948    1.3109181    2.7523975 
       1.443   -2.9967422    1.3097608    2.7611444 
       1.444   -2.9962201    1.3085695    2.7698047 
       1.445   -2.9964812    1.3073424    2.7773377 
       1.446   -2.9963507    1.3060772    2.7856164 
       1.447   -2.9968729    1.3047724    2.7929768 
       1.448   -2.9970034    1.3034248    2.8010848 
       1.449   -2.9964813    1.3020338    2.8103518 
        1.45    -2.996873    1.3006007    2.8182713 
       1.451   -2.9967424    1.2991262    2.8271182 
       1.452   -2.9967424    1.2976114    2.8358338 
       1.453   -2.9970035    1.2960628    2.8441775 
       1.454   -2.9968729    1.2944885    2.8531483 
       1.455    -2.997134    1.2928959     2.861452 
       1.456   -2.9968729    1.2912962    2.8704866 
[...]
   27130   -1.2483488    1.5951135    1.6716746   0.60880745 
   27140   -1.2637302    1.5880761    1.6853488   0.60972164 
   27150   -1.2855197    1.5768651    1.6916261   0.61049894 
   27160    -1.313774    1.5609876    1.6909749   0.61113788 
   27170   -1.3497607    1.5401007    1.6822765   0.61163847 
   27180   -1.3927507    1.5142387    1.6664555   0.61200236 
   27190   -1.4419734    1.4840739    1.6437796   0.61223264 
   27200    -1.495205    1.4510842    1.6153698   0.61233381 
   27210   -1.5496166    1.4174162    1.5823224   0.61231157 
   27220   -1.6010343    1.3854233    1.5471541   0.61217249 
   27230   -1.6470255    1.3570783    1.5107332   0.61192363 
   27240   -1.6857608    1.3335982    1.4741124   0.61157229 
   27250   -1.7161844    1.3154172    1.4383465   0.61112581 
   27260   -1.7387423    1.3023964    1.4033491   0.61059141 
   27270   -1.7544629    1.2940931    1.3686901   0.60997617 
   27280   -1.7637402    1.2899645    1.3348281   0.60928706 
   27290   -1.7669474    1.2894808    1.3022251   0.60853092 
   27300   -1.7647646    1.2921705    1.2708883   0.60771433 
   27310   -1.7584323    1.2976242    1.2400625   0.60684364 
   27320   -1.7480818    1.3054771    1.2102744   0.60592505 
   27330   -1.7343377    1.3153854    1.1814179   0.60496462 
   27340   -1.7173076    1.3270064    1.1539962   0.60396816 
   27350   -1.6981641     1.339981    1.1272365   0.60294124 
   27360   -1.6770651    1.3539337    1.1015952   0.60188926 
   27370   -1.6547068    1.3684801    1.0768807   0.60081741 
   27380   -1.6320379    1.3832415    1.0525815   0.59973071 
   27390   -1.6091826    1.3978708    1.0291251     0.598634 
   27400   -1.5863255    1.4120696    1.0067956   0.59753198 
   27410   -1.5643428    1.4256036   0.98496561   0.59642916 
   27420   -1.5428384    1.4383045   0.96443429   0.59532992 
   27430   -1.5226327    1.4500675   0.94446755   0.59423841 
   27440   -1.5038134    1.4608404   0.92512954   0.59315855 
   27450   -1.4864109    1.4706101   0.90649794   0.59209419 
   27460   -1.4695061    1.4793933   0.88972458   0.59104897 
   27470   -1.4535936    1.4872204   0.87426066   0.59002619 
   27480   -1.4391533    1.4941287   0.85955903   0.58902883 
   27490   -1.4254851    1.5001616   0.84644435   0.58805973 
   27500   -1.4131955    1.5053628   0.83419787   0.58712142 
   27510    -1.401065    1.5097751   0.82422855   0.58621617 
   27520   -1.3906151    1.5134386   0.81473395    0.5853459 
   27530   -1.3807577    1.5163952   0.80695139   0.58451233 
   27540   -1.3719703    1.5186848    0.8002863   0.58371691 
   27550   -1.3636861    1.5203504   0.79534837   0.58296084 
   27560   -1.3558578    1.5214348   0.79213204   0.58224496 
   27570   -1.3494775     1.521983   0.78941855   0.58156981 
   27580   -1.3437057    1.5220422   0.78810632   0.58093578 
   27590   -1.3376991    1.5216622   0.78908578     0.580343 
   27600   -1.3325681    1.5208984   0.79097082   0.57979123 
   27610   -1.3283709    1.5198068   0.79358793   0.57927995 
   27620   -1.3242463    1.5184469   0.79781646   0.57880853 
   27630    -1.320241    1.5168841   0.80347413   0.57837606 
   27640   -1.3161321    1.5151901   0.81067497   0.57798133 
   27650    -1.312601    1.5134398   0.81848162   0.57762288 
   27660   -1.3086191    1.5117164   0.82791168   0.57729906 
   27670   -1.3047086    1.5101162   0.83817667   0.57700797 
   27680   -1.3000647    1.5087484   0.84999499   0.57674754 
   27690   -1.2951604    1.5077415   0.86258735   0.57651541 
   27700    -1.289521    1.5072454   0.87623485   0.57630905 
   27710   -1.2830263    1.5074364   0.89077749   0.57612577 
   27720   -1.2755234    1.5085091   0.90606793   0.57596267 
   27730   -1.2664513    1.5106697   0.92240992   0.57581672 
   27740   -1.2551349    1.5141127   0.94024616   0.57568461 
   27750   -1.2422656    1.5189927   0.95849168   0.57556284 
   27760   -1.2272108    1.5253884   0.97766439   0.57544778 
   27770   -1.2098821    1.5332747   0.99777039   0.57533559 
   27780   -1.1903649    1.5425086    1.0187471   0.57522227 
   27790   -1.1689147    1.5528332    1.0404596   0.57510364 
   27800   -1.1471061    1.5638925    1.0613714   0.57497539 
   27810   -1.1242664    1.5752634    1.0825979   0.57483326 
   27820   -1.1021273    1.5864846    1.1025448   0.57467307 
   27830   -1.0809909    1.5970912    1.1212642    0.5744908 
   27840   -1.0613875    1.6066413    1.1385272   0.57428268 
   27850   -1.0437867    1.6147327    1.1541373   0.57404521 
   27860   -1.0298849     1.621018    1.1664441   0.57377525 
   27870   -1.0185523    1.6252035     1.176983   0.57347018 
   27880   -1.0109247    1.6270528    1.1846496    0.5731279 
   27890   -1.0070129    1.6263841    1.1895779   0.57274679 
   27900   -1.0070114    1.6230712    1.1916454   0.57232578 
   27910   -1.0112986    1.6170387    1.1904784    0.5718644 
   27920   -1.0199111    1.6082679    1.1860479   0.57136278 
   27930   -1.0324047    1.5968003    1.1788219   0.57082172 
   27940   -1.0488843    1.5827488    1.1685792   0.57024261 
   27950   -1.0695974    1.5663086    1.1548623   0.56962746 
   27960    -1.092569    1.5477668    1.1396477   0.56897884 
   27970   -1.1185563    1.5275026    1.1217192   0.56829976 
   27980   -1.1467473    1.5059886    1.1015516   0.56759374 
   27990   -1.1766117    1.4837652    1.0792376   0.56686473 
   28000   -1.2065117    1.4614186    1.0560815    0.5661171 
   28010   -1.2361069    1.4395399    1.0319237   0.56535544 
   28020   -1.2644523    1.4186858    1.0073323   0.56458452 
   28030   -1.2909564    1.3993489   0.98255353   0.56380922 
   28040   -1.3143672    1.3819396   0.95866835   0.56303441 
   28050   -1.3353827    1.3667812   0.93466583   0.56226487 
   28060   -1.3531136    1.3541215   0.91140378   0.56150533 
   28070   -1.3671432    1.3441505    0.8892711    0.5607604 
   28080    -1.376841    1.3370251   0.86892874   0.56003445 
   28090   -1.3822385    1.3328946   0.85030002   0.55933153 
   28100   -1.3836006    1.3319242   0.83302648   0.55865533 
   28110   -1.3803476    1.3343175   0.81764636   0.55800929 
   28120   -1.3714277    1.3403315   0.80515383   0.55739647 
   28130   -1.3571316    1.3502809   0.79497681   0.55681935 
   28140   -1.3363811    1.3645227   0.78800738   0.55627996 
   28150   -1.3099499    1.3833959   0.78309465   0.55577975 
   28160   -1.2756892    1.4070979   0.78247083   0.55531968 
   28170   -1.2349467    1.4354884   0.78485082   0.55489993 
   28180   -1.1880599    1.4678776   0.79065872   0.55452008 
   28190   -1.1370335    1.5028915   0.79921254   0.55417904 
   28200   -1.0851446    1.5385626   0.80906584   0.55387521 
   28210   -1.0353793    1.5726794    0.8193576   0.55360671 
   28220  -0.99116596    1.6032575   0.82848976   0.55337161 
   28230  -0.95361996    1.6289048   0.83677023   0.55316816 
   28240  -0.92477402    1.6489307   0.84273083   0.55299481 
   28250  -0.90421299    1.6632392   0.84695595   0.55285046 
   28260  -0.89185527    1.6721284   0.84923547    0.5527344 
   28270  -0.88627967    1.6760961   0.85061695   0.55264627 
   28280  -0.88648975    1.6757115   0.85160014   0.55258591 
   28290  -0.89241196    1.6715413    0.8516673   0.55255332 
   28300  -0.90284712     1.664119   0.85157188    0.5525486 
   28310  -0.91704141    1.6539474   0.85160622   0.55257192 
   28320   -0.9342841    1.6415012    0.8520397   0.55262347 
   28330   -0.9537646    1.6272386   0.85326187   0.55270335 
   28340  -0.97482793    1.6116032   0.85549705   0.55281154 
   28350  -0.99671417    1.5950241   0.85909036    0.5529478 
   28360   -1.0197423     1.577909   0.86320944   0.55311167 
   28370   -1.0425795    1.5606379   0.86886178   0.55330253 
   28380   -1.0649955    1.5435573    0.8758644   0.55351952 
   28390   -1.0869576    1.5269701   0.88384891   0.55376151 
   28400   -1.1069399    1.5111328   0.89413118   0.55402709 
   28410   -1.1249243    1.4962566   0.90639655    0.5543145 
   28420   -1.1410909    1.4825143   0.92013405   0.55462156 
   28430   -1.1562027    1.4700416   0.93421229   0.55494581 
   28440    -1.169244    1.4589431   0.94948629    0.5552846 
   28450   -1.1793684    1.4493009   0.96663678   0.55563503 
   28460   -1.1879789    1.4411792   0.98386148   0.55599393 
   28470   -1.1944124    1.4346315    1.0016478   0.55635798 
   28480   -1.1982815    1.4297014    1.0201837   0.55672373 
   28490   -1.2003857    1.4264223    1.0383492   0.55708756 
   28500   -1.1998344    1.4248223    1.0569083   0.55744588 
   28510    -1.197439    1.4249209    1.0747514   0.55779502 
   28520   -1.1931008    1.4267305    1.0917987   0.55813137 
   28530   -1.1869829    1.4302548    1.1077065   0.55845145 
   28540   -1.1785964    1.4354915    1.1228842   0.55875196 
   28550    -1.168233    1.4424283    1.1369078   0.55902973 
   28560   -1.1557893    1.4510448    1.1498261   0.55928177 
   28570   -1.1410244    1.4613153    1.1618724   0.55950523 
   28580   -1.1243388    1.4732121    1.1725923   0.55969744 
   28590   -1.1058557    1.4867112    1.1818623   0.55985597 
   28600   -1.0859359    1.5017948    1.1893111   0.55997864 
   28610   -1.0630841    1.5184583    1.1966459   0.56006355 
   28620   -1.0383831    1.5367156    1.2026906   0.56010885 
   28630   -1.0113211    1.5565923    1.2080486   0.56011286 
   28640   -0.9822863    1.5781231    1.2123184   0.56007406 
   28650  -0.95051608    1.6013276    1.2164061   0.55999105 
   28660  -0.91585995    1.6261654    1.2206006   0.55986247 
   28670  -0.87939617    1.6524744    1.2239535   0.55968694 
   28680  -0.84079921    1.6798974    1.2272962   0.55946323 
   28690   -0.8010404     1.707822    1.2302889   0.55919003 
   28700  -0.76110992    1.7353664     1.232862   0.55886612 
   28710  -0.72339419    1.7614179    1.2336406   0.55849038 
   28720  -0.68919204    1.7847217    1.2326155   0.55806193 
   28730   -0.6610409    1.8039883    1.2284378   0.55758033 
   28740   -0.6401176    1.8179725    1.2212267   0.55704568 
   28750  -0.62801922    1.8255072     1.210551   0.55645874 
   28760  -0.62650764    1.8254979    1.1957215   0.55582095 
   28770    -0.636601    1.8169231    1.1768001    0.5551346 
   28780  -0.66121254    1.7988962    1.1516154   0.55440285 
   28790  -0.69985965    1.7708909     1.121376   0.55363011 
   28800  -0.75311454    1.7331748    1.0852729   0.55282191 
   28810  -0.81748198    1.6873484    1.0455415   0.55198489 
   28820  -0.88890966    1.6366197    1.0032859   0.55112657 
   28830  -0.96183686    1.5852926   0.96008467   0.55025505 
   28840   -1.0291557    1.5374794   0.91942316   0.54937869 
   28850   -1.0870651     1.495852   0.88271224   0.54850548 
   28860   -1.1344191    1.4612906    0.8503865   0.54764273 
   28870   -1.1719761    1.4333883   0.82218079   0.54679693 
   28880   -1.2009148    1.4111886   0.79795537   0.54597383 
   28890   -1.2225867    1.3937024   0.77740654   0.54517847 
   28900   -1.2388356    1.3801331    0.7594813   0.54441523 
   28910   -1.2495884    1.3699157   0.74495075   0.54368799 
   28920   -1.2565651     1.362681   0.73242305   0.54300004 
   28930   -1.2590473    1.3582068    0.7229829   0.54235426 
   28940   -1.2581263    1.3563675   0.71564402   0.54175304 
   28950   -1.2532323    1.3571002   0.71113927   0.54119834 
   28960   -1.2447896    1.3603774    0.7090794   0.54069161 
   28970   -1.2321655    1.3661801   0.71019311   0.54023386 
   28980   -1.2157952    1.3744732   0.71406273   0.53982551 
   28990   -1.1956527    1.3851818   0.72079531   0.53946646 
   29000   -1.1720692     1.398165   0.73017079   0.53915606 
   29010   -1.1451151    1.4131997   0.74232255   0.53889314 
   29020   -1.1160543    1.4299581   0.75619903   0.53867601 
   29030   -1.0849956    1.4480137   0.77208356   0.53850261 
   29040   -1.0526966    1.4668586   0.78963638   0.53837049 
   29050   -1.0198606    1.4859344   0.80861684   0.53827681 
   29060  -0.98746376    1.5046782   0.82848562   0.53821842 
   29070  -0.95642817     1.522564   0.84871239     0.538192 
   29080  -0.92717781    1.5391389   0.86921643   0.53819407 
   29090  -0.90078339    1.5540437    0.8891175   0.53822108 
   29100    -0.877258    1.5670165   0.90856237   0.53826954 
   29110   -0.8566125    1.5778886   0.92759865   0.53833595 
   29120  -0.83900752    1.5865681   0.94602878   0.53841687 
   29130  -0.82516939    1.5930201   0.96298653   0.53850892 
   29140  -0.81445426    1.5972554   0.97902898   0.53860893 
   29150  -0.80721594    1.5993156   0.99361255   0.53871387 
   29160  -0.80338379     1.599267    1.0066262   0.53882094 
   29170   -0.8029944    1.5971912    1.0178335   0.53892757 
   29180  -0.80580563    1.5931819    1.0272929   0.53903153 
   29190  -0.81064871    1.5873413    1.0360562   0.53913087 
   29200  -0.81882536    1.5797764    1.0425245   0.53922381 
   29210  -0.82954101    1.5705998    1.0473534   0.53930892 
   29220  -0.84304005    1.5599274    1.0500917   0.53938511 
   29230   -0.8589101    1.5478755    1.0510054   0.53945163 
   29240  -0.87660683    1.5345611    1.0505138   0.53950807 
   29250  -0.89623879    1.5200984      1.04835   0.53955435 
   29260  -0.91804592     1.504601    1.0441193   0.53959068 
   29270  -0.94122503    1.4881795    1.0385656   0.53961769 
   29280  -0.96666893    1.4709413    1.0306278   0.53963635 
   29290  -0.99317619    1.4529954     1.021509   0.53964804 
   29300   -1.0209682    1.4344602    1.0108864   0.53965445 
   29310   -1.0495897    1.4154674   0.99916394    0.5396576 
   29320   -1.0801142     1.396173   0.98508937   0.53965984 
   29330   -1.1109531    1.3767618   0.97025821   0.53966394 
   29340   -1.1416298    1.3574609    0.9550365    0.5396729 
   29350   -1.1719927    1.3385416   0.93940412   0.53968993 
   29360   -1.2018295    1.3203111   0.92337532   0.53971836 
   29370    -1.230622    1.3031027   0.90727382   0.53976167 
   29380     -1.25783    1.2872651   0.89143775   0.53982348 
   29390   -1.2822612    1.2731443   0.87691208   0.53990735 
   29400   -1.3045659    1.2610751   0.86277301   0.54001677 
   29410   -1.3238396    1.2513835   0.84977954   0.54015518 
   29420   -1.3389069    1.2444004   0.83897544   0.54032584 
   29430   -1.3495851    1.2404909   0.83029423    0.5405317 
   29440   -1.3555831    1.2400916   0.82370108   0.54077533 
   29450   -1.3550047     1.243755   0.82075897   0.54105887 
   29460   -1.3476994    1.2521734   0.82098676   0.54138387 
   29470   -1.3320184    1.2661689   0.82536561   0.54175121 
   29480   -1.3071816    1.2865945   0.83388972   0.54216098 
   29490   -1.2716839    1.3140876   0.84754843   0.54261239 
   29500   -1.2257343    1.3486571   0.86613201   0.54310361 
   29510   -1.1703651    1.3892281   0.88968198   0.54363174 
   29520   -1.1100421    1.4334686   0.91585121   0.54419288 
   29530   -1.0482297    1.4782233    0.9442453   0.54478239 
   29540  -0.98966416    1.5204417   0.97296477   0.54539513 
   29550  -0.93836437    1.5579974   0.99988029   0.54602578 
   29560  -0.89521983    1.5899054    1.0250248   0.54666917 
   29570  -0.85998916    1.6160329    1.0487367   0.54732033 
   29580  -0.83220316    1.6366702    1.0711365   0.54797449 
   29590  -0.81189111     1.652216    1.0916739   0.54862708 
   29600  -0.79745875    1.6630269    1.1116079   0.54927372 
   29610  -0.78888378     1.669373    1.1305635   0.54991012 
   29620  -0.78678338    1.6714524    1.1475311    0.5505321 
   29630  -0.79053557    1.6694237    1.1628944   0.55113577 
   29640  -0.79926637     1.663445    1.1773107   0.55171745 
   29650  -0.81323283    1.6537086    1.1901526   0.55227367 
   29660  -0.83207521    1.6404738    1.2013924   0.55280119 
   29670  -0.85477995     1.624094    1.2116157     0.553297 
   29680  -0.88083015    1.6050297    1.2207443   0.55375831 
   29690  -0.91020287    1.5838512    1.2280331   0.55418257 
   29700  -0.94170202    1.5612203    1.2339328   0.55456749 
   29710  -0.97353416    1.5378513    1.2395035   0.55491107 
   29720   -1.0050819    1.5144569    1.2445089   0.55521139 
   29730   -1.0356795    1.4916947    1.2488291   0.55546662 
   29740   -1.0644134    1.4701282    1.2527257   0.55567506 
   29750   -1.0905487    1.4501962    1.2564054   0.55583508 
   29760   -1.1137944    1.4322135    1.2597257   0.55594513 
   29770   -1.1342817    1.4163845    1.2622049   0.55600373 
   29780   -1.1512229    1.4028292    1.2644825   0.55600957 
   29790   -1.1649611    1.3916051    1.2660239    0.5559614 
   29800   -1.1752372    1.3827317    1.2670143   0.55585812 
   29810   -1.1822062    1.3762104     1.267214   0.55569877 
   29820   -1.1856325    1.3720386    1.2668347   0.55548258 
   29830   -1.1859219    1.3702168    1.2653896   0.55520895 
   29840   -1.1826774    1.3707529    1.2632891   0.55487746 
   29850   -1.1765256    1.3736648    1.2598172   0.55448791 
   29860   -1.1671604    1.3789767     1.255301   0.55404034 
   29870   -1.1540083    1.3867154    1.2503769   0.55353504 
   29880   -1.1374192    1.3968936    1.2446924    0.5529725 
   29890   -1.1175218    1.4094953    1.2381872   0.55235339 
   29900   -1.0941325    1.4244455    1.2312217   0.55167855 
   29910   -1.0670676    1.4415801    1.2242637   0.55094899 
   29920   -1.0378937    1.4606095    1.2160057   0.55016578 
   29930    -1.006447    1.4810845    1.2072258   0.54933028 
   29940  -0.97333155    1.5023919    1.1980433   0.54844396 
   29950  -0.94027924    1.5237747    1.1875089   0.54750853 
   29960  -0.90850262    1.5443855    1.1753505   0.54652599 
   29970  -0.87844496    1.5633697    1.1621482   0.54549869 
   29980  -0.85160866    1.5799551    1.1472436   0.54442928 
   29990  -0.82952638    1.5935244     1.129789   0.54332081 
   30000  -0.81173755    1.6036648    1.1108832   0.54217683 
Loop time of 5.67914 on 8 procs for 30000 steps with 125 atoms

Performance: 45640.712 tau/day, 5282.490 timesteps/s
94.1% CPU use with 1 MPI tasks x 8 OpenMP threads

MPI task timing breakdown:
Section |  min time  |  avg time  |  max time  |%varavg| %total
---------------------------------------------------------------
Pair    | 1.9033     | 1.9033     | 1.9033     |   0.0 | 33.51
Neigh   | 0          | 0          | 0          |   0.0 |  0.00
Comm    | 0.1457     | 0.1457     | 0.1457     |   0.0 |  2.57
Output  | 0.071854   | 0.071854   | 0.071854   |   0.0 |  1.27
Modify  | 3.5433     | 3.5433     | 3.5433     |   0.0 | 62.39
Other   |            | 0.01496    |            |       |  0.26

Nlocal:        125.000 ave         125 max         125 min
Histogram: 1 0 0 0 0 0 0 0 0 0
Nghost:        1779.00 ave        1779 max        1779 min
Histogram: 1 0 0 0 0 0 0 0 0 0
Neighs:        12780.0 ave       12780 max       12780 min
Histogram: 1 0 0 0 0 0 0 0 0 0

Total # of neighbors = 12780
Ave neighs/atom = 102.24000
Neighbor list builds = 11
Dangerous builds = 0

variable avedens equal f_aves[1]
variable avetemp equal f_aves[2]
variable avepress equal f_aves[3]
variable errdens equal sqrt(f_aves[4]-f_aves[1]*f_aves[1])
variable errtemp equal sqrt(f_aves[5]-f_aves[2]*f_aves[2])
variable errpress equal sqrt(f_aves[6]-f_aves[3]*f_aves[3])

print "Averages"
Averages
print "--------"
--------
print "Density: ${avedens}"
Density: 0.583544651279929
print "Stderr: ${errdens}"
Stderr: 0.0272349655813754
print "Temperature: ${avetemp}"
Temperature: 1.50006291326534
print "Stderr: ${errtemp}"
Stderr: 0.115529377827092
print "Pressure: ${avepress}"
Pressure: 0.998266846313915
print "Stderr: ${errpress}"
Stderr: 0.335596236476593
