
### SPECIFY THE NUMBER OF PRODUCTION STEPS ###
variable Nprod equal 30000

### ASSIGN ATOMIC VELOCITIES ###
velocity all create ${T} 12345 dist gaussian rot yes mom yes
velocity all create 1.5 12345 dist gaussian rot yes mom yes

### SPECIFY ENSEMBLE ###
timestep ${timestep}
timestep 0.0005
fix nve all nve

### THERMODYNAMIC OUTPUT CONTROL ###
thermo_style custom time etotal temp press
thermo 10

### RECORD TRAJECTORY ###
dump traj all custom 1000 traj.dump id x y z

### SPECIFY TIMESTEP ###
variable n_steps equal floor(50/${timestep})
variable n_steps equal floor(50/0.0005)
timestep ${timestep}
timestep 0.0005

### RUN SIMULATION TO MELT CRYSTAL ###
run ${n_steps}
run 100000
Last active /omp style is pair_style lj/cut/omp
Neighbor list info ...
  update every 1 steps, delay 10 steps, check yes
  max neighbors/atom: 2000, page size: 100000
  master list distance cutoff = 4.5
  ghost atom cutoff = 4.5
  binsize = 2.25, bins = 3 3 3
  1 neighbor lists, perpetual/occasional/extra = 1 0 0
  (1) pair lj/cut/omp, perpetual
      attributes: half, newton on, omp
      pair build: half/bin/atomonly/newton/omp
      stencil: half/bin/3d/newton
      bin: standard
Per MPI rank memory allocation (min/avg/max) = 10.63 | 10.63 | 10.63 Mbytes
Time TotEng Temp Press 
           0   -3.0327711          1.5   0.89516323 
       0.005   -3.0327717    1.4913664   0.94340178 
        0.01   -3.0327725    1.4651981    1.0889614 
       0.015   -3.0327733    1.4211181    1.3322923 
        0.02   -3.0322511    1.3590428    1.6723988 
       0.025   -3.0300311    1.2797458    2.1046219 
        0.03   -3.0261126    1.1855694    2.6144552 
       0.035   -3.0216684    1.0813049    3.1738505 
        0.04   -3.0166991   0.97477127    3.7428727 
       0.045   -3.0135561   0.87630309    4.2669151 
        0.05   -3.0114593   0.79660405    4.6953842 
       0.055   -3.0114559   0.74360551    4.9881946 
        0.06   -3.0102837   0.71999565    5.1367839 
       0.065   -3.0108116   0.72293545    5.1487966 
        0.07   -3.0093829   0.74586851    5.0601839 
       0.075    -3.008215   0.78098931     4.904273 
        0.08   -3.0078275   0.82115386    4.7149273 
       0.085   -3.0087439   0.86089735    4.5187578 
        0.09    -3.007309   0.89677961    4.3397251 
       0.095   -3.0069166   0.92736436    4.1811966 
         0.1    -3.006002   0.95276209    4.0468856 
       0.105   -3.0062612   0.97399198     3.930617 
        0.11   -3.0062604   0.99237453    3.8293222 
       0.115     -3.00639    1.0091172    3.7369176 
        0.12   -3.0052141     1.025323    3.6504635 
       0.125   -3.0048219    1.0419658     3.561783 
        0.13   -3.0041687    1.0598352    3.4683677 
       0.135   -3.0049518    1.0795147    3.3643362 
        0.14    -3.005474    1.1012753    3.2505455 
       0.145   -3.0056047    1.1251388    3.1265305 
        0.15   -3.0053436    1.1510174    2.9923384 
       0.155   -3.0040375    1.1787515     2.849455 
        0.16   -3.0029937    1.2081559    2.6964259 
       0.165   -3.0022112    1.2390589    2.5340096 
        0.17   -3.0022117    1.2712509    2.3624548 
       0.175   -3.0019508    1.3044215    2.1851409 
        0.18    -3.001821    1.3380482    2.0042456 
       0.185   -3.0020827    1.3713476     1.823522 
        0.19   -3.0016924    1.4032827    1.6500875 
       0.195   -3.0009117    1.4326612    1.4897784 
         0.2   -3.0013047    1.4582591    1.3464925 
       0.205   -3.0020884    1.4789872    1.2272731 
        0.21   -3.0018285    1.4940214    1.1389907 
       0.215   -3.0016988    1.5028421     1.082766 
        0.22   -3.0013078    1.5053227    1.0602507 
       0.225   -2.9996102    1.5018089    1.0718798 
        0.23   -2.9989564    1.4930979     1.110414 
       0.235   -2.9990867    1.4803124    1.1710478 
        0.24   -2.9988255    1.4646723    1.2498676 
       0.245   -2.9997396    1.4472342    1.3392654 
        0.25    -3.000001    1.4287728    1.4381412 
       0.255   -3.0003924    1.4099162    1.5417414 
        0.26   -3.0003918    1.3913159    1.6473071 
       0.265   -3.0013054    1.3735888    1.7493232 
        0.27   -3.0013063     1.357171    1.8480711 
       0.275   -3.0014369    1.3421944    1.9405786 
        0.28   -3.0014369    1.3285229    2.0271589 
       0.285   -3.0019586    1.3159337    2.1070972 
        0.29    -3.001437    1.3043609    2.1826107 
       0.295   -3.0019589    1.2940472    2.2487164 
         0.3    -3.002611    1.2857265    2.3031014 
       0.305   -3.0023483    1.2806746    2.3414907 
        0.31    -3.001434    1.2802919    2.3572128 
       0.315   -3.0014347    1.2853354    2.3447652 
        0.32   -3.0001316    1.2951325    2.3112351 
       0.325   -3.0019617    1.3075249    2.2599188 
        0.33   -3.0027481    1.3195549    2.2115775 
       0.335   -3.0034019    1.3285073    2.1776474 
        0.34    -3.003009    1.3331347    2.1658584 
       0.345   -3.0028753    1.3342798    2.1711565 
        0.35    -3.003527     1.334003    2.1842583 
       0.355   -3.0041803    1.3335301     2.201331 
        0.36   -3.0043131    1.3320632    2.2267408 
       0.365   -3.0044454    1.3276954    2.2678334 
        0.37   -3.0043147    1.3192668    2.3297623 
       0.375   -3.0040519    1.3073011    2.4095095 
        0.38   -3.0044414    1.2935924    2.4972114 
       0.385   -3.0040493    1.2801939    2.5852361 
        0.39   -3.0047007    1.2686662     2.662824 
       0.395    -3.004701     1.260036    2.7273391 
         0.4   -3.0032654      1.25495    2.7766029 
       0.405   -3.0035266     1.253672    2.8042395 
        0.41   -3.0031352    1.2559134     2.815273 
       0.415   -3.0039193    1.2609447    2.8103426 
        0.42   -3.0041811    1.2678252    2.7967456 
       0.425   -3.0039202     1.275723    2.7786151 
        0.43   -3.0040516    1.2840313    2.7575691 
       0.435   -3.0026158    1.2921771    2.7394641 
        0.44   -3.0020935    1.2994362    2.7236146 
       0.445   -3.0017036     1.304943    2.7149258 
        0.45    -3.002226    1.3080369    2.7148139 
       0.455   -3.0023565    1.3085516     2.725738 
        0.46   -3.0041828     1.306889    2.7422357 
       0.465   -3.0036602    1.3037433    2.7672226 
        0.47   -3.0041818    1.2997693    2.7919387 
       0.475   -3.0050966    1.2953588    2.8152717 
        0.48    -3.005097    1.2907288    2.8379811 
       0.485   -3.0056179    1.2863295    2.8554877 
        0.49   -3.0061388    1.2833295    2.8633648 
       0.495   -3.0056149     1.283519    2.8555756 
         0.5    -3.005355    1.2882199    2.8247196 
       0.505   -3.0053574    1.2968903    2.7738751 
        0.51   -3.0045775    1.3070393    2.7164887 
       0.515   -3.0054929    1.3156755    2.6626733 
        0.52   -3.0048406    1.3207675    2.6274367 
       0.525   -3.0032742    1.3216152    2.6136186 
        0.53   -3.0031434     1.318357    2.6173575 
       0.535   -3.0032735    1.3115179    2.6384158 
        0.54   -3.0031417    1.3017773    2.6746934 
       0.545   -3.0030108    1.2898573    2.7225087 
        0.55   -3.0023569    1.2766445     2.778621 
       0.555   -3.0024865    1.2633631    2.8353814 
        0.56   -3.0022254    1.2513645    2.8885747 
       0.565   -3.0014433    1.2413798    2.9349504 
        0.57   -3.0024902    1.2329493    2.9724375 
       0.575   -3.0030135    1.2247304     3.010098 
        0.58   -3.0041888    1.2157596    3.0494287 
       0.585   -3.0037955    1.2066814     3.090354 
        0.59   -3.0045773    1.1995122    3.1187648 
       0.595   -3.0054897     1.196571    3.1254264 
         0.6   -3.0053585    1.1995616    3.1043042 
       0.605   -3.0061413    1.2091686    3.0493849 
        0.61    -3.006535    1.2245991    2.9667992 
       0.615   -3.0065379    1.2435027    2.8678488 
        0.62   -3.0058877    1.2626195    2.7683809 
       0.625   -3.0052363    1.2788965    2.6817546 
        0.63   -3.0053686    1.2904632     2.615708 
       0.635   -3.0051066    1.2969718    2.5739565 
        0.64   -3.0049749    1.2993612    2.5514142 
       0.645   -3.0056264    1.2990964    2.5399612 
        0.65   -3.0056256    1.2975499    2.5349097 
       0.655    -3.004842    1.2959127    2.5302314 
        0.66   -3.0048412    1.2954745    2.5168862 
       0.665   -3.0053616    1.2977698    2.4881513 
        0.67   -3.0056231    1.3040719    2.4399863 
       0.675   -3.0060165    1.3143025    2.3731164 
        0.68     -3.00576    1.3261798    2.3003467 
       0.685   -3.0049801    1.3357458    2.2404169 
        0.69    -3.005373    1.3395691    2.2071467 
       0.695   -3.0045876    1.3366604    2.2098168 
         0.7   -3.0045856    1.3284405    2.2396076 
       0.705   -3.0045841    1.3173637     2.286957 
        0.71    -3.004582    1.3056176    2.3417209 
       0.715   -3.0031442    1.2949672    2.3976509 
        0.72   -3.0035348    1.2871056    2.4413265 
       0.725    -3.003534    1.2833325    2.4701172 
        0.73   -3.0027532    1.2833705    2.4856112 
       0.735   -3.0024958    1.2848683    2.4959312 
        0.74   -3.0031511    1.2844328    2.5150937 
       0.745   -3.0039349    1.2796241    2.5547135 
        0.75   -3.0023663    1.2703066    2.6187926 
       0.755   -3.0017114    1.2586245     2.691847 
        0.76   -3.0011867    1.2478288    2.7597137 
       0.765   -3.0020996    1.2407692    2.8066052 
        0.77    -3.002099    1.2389237    2.8287741 
       0.775   -3.0022304    1.2422695    2.8238381 
        0.78   -3.0021007    1.2499114    2.7959256 
       0.785   -3.0017097    1.2608177    2.7495103 
        0.79   -3.0024927    1.2742948    2.6857074 
       0.795   -3.0031459    1.2898278    2.6093968 
         0.8   -3.0027558    1.3066809    2.5260841 
       0.805   -3.0023659     1.323587     2.440664 
        0.81   -3.0026285    1.3389197    2.3603519 
       0.815   -3.0034126    1.3510807    2.2935071 
        0.82    -3.003545    1.3586865    2.2490378 
       0.825   -3.0026322    1.3606456    2.2331266 
        0.83    -3.001979    1.3564518    2.2461256 
       0.835   -3.0022363    1.3472763    2.2816145 
        0.84   -3.0014487     1.336888    2.3257553 
       0.845   -3.0006621    1.3304016    2.3541502 
        0.85   -3.0001416    1.3307073    2.3536494 
       0.855   -2.9998847    1.3363871    2.3305797 
        0.86   -3.0009314    1.3436087    2.3005045 
       0.865    -3.000802    1.3490062    2.2828361 
        0.87    -2.999236    1.3508358    2.2862568 
       0.875   -2.9996251     1.348853    2.3067204 
        0.88    -2.999361    1.3438408    2.3448623 
       0.885   -2.9993603    1.3370462     2.393338 
        0.89   -2.9990992    1.3295868    2.4474141 
       0.895   -2.9981856    1.3220268    2.5045695 
         0.9   -2.9970123    1.3141854    2.5643038 
       0.905   -2.9968833    1.3053738    2.6269656 
        0.91   -2.9958394    1.2949158    2.6981287 
       0.915    -2.995578    1.2826747    2.7751839 
        0.92   -2.9955783    1.2693254    2.8555796 
       0.925    -2.995316    1.2559976     2.934628 
        0.93   -2.9947938    1.2437336     3.007088 
       0.935   -2.9942711    1.2333691    3.0680717 
        0.94   -2.9946596    1.2265141    3.1083073 
       0.945   -2.9942644    1.2265079    3.1154174 
        0.95   -2.9945258    1.2366216    3.0728327 
       0.955   -2.9941396    1.2560091    2.9869056 
        0.96   -2.9938834    1.2791655    2.8816072 
       0.965   -2.9941465    1.3000158    2.7845509 
        0.97   -2.9937543    1.3151578    2.7143707 
       0.975   -2.9942751    1.3239845    2.6727862 
        0.98   -2.9950563    1.3273882    2.6577867 
       0.985   -2.9957072    1.3265246    2.6651784 
        0.99   -2.9959677    1.3220648    2.6921761 
       0.995   -2.9959666    1.3143654    2.7364329 
           1   -2.9957032    1.3043415    2.7931516 
       1.005   -2.9954382    1.2941562    2.8516895 
        1.01   -2.9942604     1.286777    2.8999411 
       1.015   -2.9938683    1.2844978    2.9248409 
        1.02   -2.9941319    1.2875026    2.9259544 
       1.025    -2.994528    1.2933658    2.9152023 
        1.03   -2.9944015    1.2979846    2.9122657 
       1.035   -2.9946652    1.2971925    2.9346301 
        1.04   -2.9955803    1.2880564    2.9949621 
       1.045   -2.9957099    1.2696953     3.098894 
        1.05   -2.9963593    1.2436871    3.2361277 
       1.055   -2.9971384    1.2138773    3.3886753 
        1.06   -2.9966133    1.1850622    3.5357292 
       1.065   -2.9962195    1.1612504     3.655321 
        1.07   -2.9959565     1.144882    3.7349127 
       1.075   -2.9959549    1.1374145    3.7666834 
        1.08   -2.9972595    1.1400212    3.7434314 
       1.085     -2.99726    1.1534066    3.6667356 
        1.09   -2.9972617    1.1770384    3.5380712 
       1.095   -2.9968736    1.2087561     3.369429 
         1.1   -2.9962237    1.2450267    3.1785363 
       1.105   -2.9957054    1.2815987    2.9859491 
        1.11    -2.995316    1.3144321    2.8118816 
       1.115    -2.995709    1.3404003    2.6711355 
        1.12   -2.9967535    1.3576264    2.5736322 
       1.125   -2.9968834    1.3655275    2.5252344 
        1.13   -2.9975348    1.3645748    2.5216438 
       1.135   -2.9972728    1.3560385    2.5590547 
        1.14   -2.9976622    1.3417116    2.6261636 
       1.145   -2.9971381    1.3235838     2.715317 
        1.15    -2.997398    1.3037198    2.8133495 
       1.155    -2.997397    1.2839805    2.9123318 
        1.16   -2.9970039    1.2659128    3.0044191 
       1.165   -2.9979171    1.2507144    3.0806922 
        1.17   -2.9980477    1.2391456    3.1404613 
       1.175   -2.9976564    1.2314412     3.181952 
        1.18   -2.9971359    1.2272246    3.2061492 
       1.185   -2.9973979    1.2255625     3.215816 
        1.19   -2.9963543    1.2252145     3.219995 
       1.195   -2.9964857    1.2249171    3.2205768 
         1.2   -2.9972686    1.2236839    3.2228821 
       1.205   -2.9980516    1.2211684    3.2294953 
        1.21   -2.9979199    1.2178889    3.2394769 
       1.215   -2.9972655    1.2151901    3.2462491 
        1.22    -2.997264     1.214663    3.2409176 
       1.225   -2.9972635    1.2174492    3.2196857 
        1.23   -2.9970026    1.2237536    3.1824731 
       1.235   -2.9963504    1.2328685    3.1331588 
        1.24   -2.9959599    1.2436323     3.076609 
       1.245   -2.9963522    1.2548484    3.0180961 
        1.25    -2.996091    1.2655842    2.9648788 
       1.255   -2.9963529    1.2751248    2.9190233 
        1.26   -2.9971382    1.2826502    2.8847504 
       1.265   -2.9966176    1.2869374    2.8706628 
        1.27   -2.9955752    1.2864524     2.882098 
       1.275   -2.9966191    1.2799784    2.9194729 
        1.28   -2.9964875     1.267547    2.9864404 
       1.285   -2.9967441    1.2511686    3.0697809 
        1.29   -2.9967395    1.2347704    3.1510257 
       1.295   -2.9966058    1.2231227    3.2068321 
         1.3   -2.9968656    1.2200334    3.2180082 
       1.305   -2.9967361    1.2268904    3.1788669 
        1.31   -2.9964779    1.2425411    3.0942665 
       1.315   -2.9971332    1.2641564    2.9761624 
        1.32   -2.9967437    1.2882944    2.8447017 
       1.325   -2.9960937    1.3116469    2.7154678 
        1.33    -2.995052    1.3313795    2.6034448 
       1.335   -2.9947924    1.3452394    2.5185936 
        1.34   -2.9946625    1.3517771    2.4696995 
       1.345   -2.9946612    1.3507418     2.458521 
        1.35   -2.9949191     1.343649    2.4783007 
       1.355   -2.9953068    1.3337959    2.5143136 
        1.36   -2.9941293    1.3252696    2.5507909 
       1.365   -2.9950431    1.3207529    2.5696032 
        1.37   -2.9953068    1.3198941    2.5760825 
       1.375   -2.9943956    1.3200624    2.5821521 
        1.38   -2.9949192     1.318658    2.5946834 
       1.385   -2.9954399    1.3148233    2.6193353 
        1.39   -2.9950464    1.3095922    2.6525261 
       1.395    -2.995174    1.3050384    2.6822437 
         1.4   -2.9960857    1.3031782     2.698698 
       1.405   -2.9958249    1.3049235    2.7007071 
        1.41   -2.9958271    1.3096317    2.6889136 
       1.415   -2.9958293    1.3154609    2.6722901 
        1.42   -2.9957006    1.3202224     2.661115 
       1.425   -2.9967454    1.3223638    2.6605767 
        1.43   -2.9968752    1.3214141    2.6762165 
       1.435   -2.9970053    1.3179438    2.7039589 
        1.44   -2.9970049    1.3129278    2.7393079 
       1.445   -2.9968748    1.3069571    2.7788956 
        1.45    -2.997267    1.3000348    2.8206732 
       1.455   -2.9968751    1.2922019      2.86547 
        1.46   -2.9971346    1.2844155    2.9057213 
       1.465   -2.9975244    1.2788229    2.9320384 
        1.47    -2.998567    1.2778293    2.9327217 
       1.475    -2.998567    1.2826191    2.9055075 
        1.48   -2.9975238     1.292527    2.8540574 
       1.485   -2.9973946    1.3056111    2.7850197 
        1.49   -2.9966132    1.3194117    2.7132346 
       1.495   -2.9957013    1.3314249    2.6504235 
         1.5   -2.9955711    1.3395116    2.6058271 
       1.505   -2.9951789    1.3422944     2.588016 
        1.51   -2.9949175     1.339358    2.5984353 
       1.515    -2.993872    1.3313102     2.635602 
        1.52   -2.9943914    1.3197014    2.6882906 
       1.525   -2.9953028    1.3068008    2.7474136 
        1.53   -2.9953006    1.2951948    2.8027399 
       1.535   -2.9951702    1.2869446    2.8432117 
        1.54   -2.9951724    1.2826768    2.8653345 
       1.545   -2.9949144    1.2811225    2.8753099 
        1.55   -2.9960935    1.2796002    2.8824703 
       1.555   -2.9959652    1.2751193     2.904618 
        1.56   -2.9962263    1.2657346    2.9475984 
       1.565   -2.9955696    1.2521123    3.0102633 
        1.57   -2.9951717    1.2384719    3.0718613 
       1.575   -2.9956911    1.2307408    3.1052233 
        1.58   -2.9958242    1.2316972    3.1003683 
       1.585   -2.9959605     1.238401     3.069854 
        1.59   -2.9963552    1.2454249    3.0377637 
       1.595   -2.9962246    1.2490016     3.022822 
         1.6    -2.996745    1.2480381    3.0286802 
       1.605   -2.9968738     1.243331    3.0537906 
        1.61   -2.9966106    1.2367739    3.0895463 
       1.615   -2.9975223    1.2309167    3.1216563 
        1.62   -2.9972593    1.2282505    3.1422612 
       1.625   -2.9972587     1.230185    3.1424064 
        1.63    -2.997522    1.2362391      3.12399 
       1.635   -2.9984391    1.2441406    3.0964022 
        1.64   -2.9972663    1.2509051    3.0772984 
       1.645   -2.9968745    1.2543731    3.0719647 
        1.65   -2.9964822    1.2541601    3.0837496 
       1.655   -2.9964812    1.2513615    3.1076468 
        1.66   -2.9971348    1.2469296    3.1392489 
       1.665   -2.9975281    1.2402984    3.1823398 
        1.67   -2.9962237    1.2298479    3.2457885 
       1.675   -2.9959614    1.2148785    3.3274363 
        1.68   -2.9972627    1.1973022    3.4170734 
       1.685   -2.9972589    1.1815372    3.4988972 
        1.69   -2.9967358    1.1723206    3.5501978 
       1.695   -2.9962159    1.1714993    3.5616817 
         1.7   -2.9967431    1.1767697    3.5418951 
       1.705   -2.9964866    1.1834141    3.5149362 
        1.71   -2.9967497    1.1870295    3.4987819 
       1.715   -2.9959669    1.1851225    3.5075103 
        1.72   -2.9955737    1.1775477    3.5397472 
       1.725   -2.9957009    1.1663152    3.5862392 
        1.73   -2.9958273    1.1549068    3.6319144 
       1.735   -2.9954332     1.147109    3.6603018 
        1.74   -2.9959539    1.1456328    3.6565975 
       1.745   -2.9959547    1.1513906    3.6187154 
        1.75   -2.9954342    1.1638204    3.5491784 
       1.755   -2.9967406    1.1818088    3.4496836 
        1.76   -2.9967419    1.2041862    3.3313592 
       1.765   -2.9973965    1.2293047    3.1996389 
        1.77   -2.9975306    1.2544838     3.069512 
       1.775   -2.9967492     1.276464     2.957127 
        1.78   -2.9971416    1.2925745    2.8718267 
       1.785    -2.996488    1.3015929    2.8230507 
        1.79   -2.9959642    1.3038846    2.8073332 
       1.795   -2.9966162     1.301049    2.8156503 
         1.8   -2.9966142     1.295154    2.8411076 
       1.805   -2.9954386    1.2880719    2.8754148 
        1.81   -2.9955688    1.2811274    2.9078201 
       1.815   -2.9956987    1.2752037    2.9354906 
        1.82    -2.995829    1.2711032     2.953982 
       1.825   -2.9966121    1.2697506    2.9575373 
        1.83   -2.9960893    1.2719862    2.9452775 
       1.835   -2.9960906    1.2779745    2.9136935 
        1.84   -2.9962236    1.2865917    2.8687301 
       1.845    -2.995572    1.2956957    2.8218918 
        1.85   -2.9955722    1.3032298    2.7806565 
       1.855   -2.9959636    1.3083024    2.7501313 
        1.86   -2.9954408    1.3112368    2.7316352 
       1.865   -2.9957018    1.3127008    2.7199666 
        1.87   -2.9962248    1.3128283    2.7155421 
       1.875   -2.9959642    1.3112397    2.7215903 
        1.88   -2.9950492    1.3080049    2.7374647 
       1.885   -2.9951782    1.3042935    2.7552697 
        1.89   -2.9954387    1.3017463     2.769345 
       1.895   -2.9945267    1.3008973    2.7795355 
         1.9   -2.9953123    1.3003324    2.7876124 
       1.905   -2.9954449    1.2974825    2.8085465 
        1.91    -2.995184     1.290442    2.8500687 
       1.915   -2.9946603    1.2791216     2.911894 
        1.92   -2.9945268    1.2650419    2.9854367 
       1.925   -2.9938713    1.2503964    3.0612572 
        1.93   -2.9945222    1.2374165    3.1252628 
       1.935   -2.9951728    1.2282738     3.168781 
        1.94   -2.9953023    1.2249538    3.1830824 
       1.945   -2.9950407      1.22868      3.16235 
        1.95   -2.9945212    1.2391205    3.1081556 
       1.955   -2.9937403    1.2542002    3.0305488 
        1.96   -2.9943947    1.2706453    2.9424967 
       1.965   -2.9946583    1.2850289    2.8633989 
        1.97     -2.99492    1.2948251    2.8051158 
       1.975   -2.9945274    1.2991146    2.7738683 
        1.98   -2.9951781    1.2987301    2.7641068 
       1.985   -2.9959586    1.2957288    2.7687378 
        1.99   -2.9951737    1.2923718    2.7807267 
       1.995   -2.9950423    1.2901002    2.7901979 
           2    -2.995174    1.2890122    2.7972565 
       2.005   -2.9954371    1.2879857    2.8069641 
        2.01   -2.9957008    1.2852289    2.8272448 
       2.015   -2.9955716    1.2790095    2.8659667 
        2.02   -2.9950492    1.2683847     2.926634 
       2.025   -2.9957006    1.2537094    3.0041734 
        2.03   -2.9955678    1.2367913    3.0924082 
       2.035   -2.9964786    1.2205204    3.1742682 
        2.04   -2.9971289    1.2079503    3.2369868 
       2.045   -2.9969972    1.2013702    3.2701776 
        2.05   -2.9966058    1.2017963    3.2679088 
       2.055    -2.996999    1.2089359    3.2298162 
        2.06   -2.9972621    1.2214879    3.1637007 
       2.065   -2.9973947    1.2375736    3.0788507 
        2.07   -2.9976576    1.2551249    2.9852277 
       2.075   -2.9976595    1.2721217    2.8938716 
        2.08   -2.9981844    1.2865551    2.8138994 
       2.085   -2.9975334    1.2963616    2.7583815 
        2.09   -2.9972728    1.2996767    2.7340359 
       2.095   -2.9967489    1.2955361    2.7466274 
         2.1   -2.9968763    1.2849471    2.7902352 
       2.105    -2.998047    1.2711536    2.8496145 
        2.11   -2.9993515    1.2579487    2.9090106 
       2.115   -2.9993538    1.2471757    2.9619451 
        2.12   -2.9993551    1.2381939    3.0082754 
       2.125   -2.9983103    1.2297544    3.0544373 
        2.13   -2.9987006     1.221634    3.0969792 
       2.135   -2.9990908    1.2148183    3.1335329 
        2.14   -2.9994813    1.2106809    3.1578467 
       2.145   -2.9992199    1.2099164     3.167844 
        2.15   -2.9989599    1.2118967    3.1652518 
       2.155    -2.999092    1.2149561    3.1568183 
        2.16    -2.998441    1.2172542    3.1526479 
       2.165   -2.9975279    1.2172928    3.1584887 
        2.17   -2.9966141    1.2141411    3.1778472 
       2.175   -2.9962216    1.2077547    3.2095988 
        2.18   -2.9960878    1.1994852    3.2475098 
       2.185   -2.9962154    1.1920742    3.2789178 
        2.19   -2.9967357    1.1886884    3.2893446 
       2.195   -2.9968657    1.1915444    3.2703413 
         2.2   -2.9964759    1.2009676    3.2211319 
       2.205   -2.9962185    1.2154147    3.1483607 
        2.21   -2.9959616    1.2320647    3.0659292 
       2.215   -2.9946602    1.2473989    2.9923682 
        2.22   -2.9950545     1.257834    2.9403436 
       2.225   -2.9949253    1.2605194    2.9267375 
        2.23   -2.9937499    1.2542179    2.9579187 
       2.235   -2.9941395    1.2398485    3.0250689 
        2.24   -2.9951802    1.2203712    3.1153295 
       2.245   -2.9945239    1.2002425    3.2111804 
        2.25   -2.9946513    1.1842858    3.2856706 
       2.255   -2.9958249    1.1761516    3.3207308 
        2.26   -2.9955633    1.1774919    3.3118744 
       2.265   -2.9941282    1.1884873    3.2574459 
        2.27   -2.9938699    1.2082212    3.1581432 
       2.275   -2.9943951    1.2342145    3.0266206 
        2.28     -2.99466    1.2624229    2.8838129 
       2.285   -2.9941401    1.2885121    2.7513425 
        2.29   -2.9937498    1.3092743    2.6435459 
       2.295   -2.9942719    1.3231949    2.5672507 
         2.3   -2.9951841    1.3301613    2.5247072 
       2.305   -2.9951832    1.3309275    2.5149785 
        2.31   -2.9946601    1.3267212    2.5317323 
       2.315     -2.99492    1.3189945    2.5657681 
        2.32   -2.9960936    1.3092272    2.6093459 
       2.325   -2.9963531    1.2990179    2.6571783 
        2.33     -2.99622    1.2905099    2.6979322 
       2.335   -2.9972623    1.2864997    2.7162949 
        2.34   -2.9962178    1.2891989    2.7078148 
       2.345   -2.9967432    1.2983768    2.6683793 
        2.35    -2.995966    1.3106581    2.6184614 
       2.355   -2.9971461     1.320912     2.576538 
        2.36   -2.9976712    1.3244943    2.5681277 
       2.365   -2.9981942    1.3187677    2.6040236 
        2.37   -2.9974079    1.3039439    2.6847181 
       2.375   -2.9971405    1.2835511    2.7903968 
        2.38   -2.9976558    1.2639628    2.8908838 
       2.385   -2.9977841     1.251897    2.9570517 
        2.39   -2.9979164    1.2503985    2.9738274 
       2.395   -2.9976605    1.2572195     2.951251 
         2.4   -2.9977952    1.2673777     2.910254 
       2.405    -2.997405    1.2766949    2.8716175 
        2.41   -2.9981891    1.2830736    2.8430919 
       2.415   -2.9983192    1.2858342    2.8315448 
        2.42   -2.9987104    1.2849471    2.8360891 
       2.425   -2.9977942    1.2810303    2.8563887 
        2.43   -2.9981829    1.2758594    2.8800431 
       2.435   -2.9985717    1.2723593    2.8958188 
        2.44   -2.9987018    1.2733303    2.8914697 
       2.445    -2.998835    1.2796391    2.8626896 
        2.45   -2.9984463    1.2895254    2.8181838 
       2.455   -2.9983182    1.2998596     2.770891 
        2.46   -2.9987106     1.307966    2.7328795 
       2.465   -2.9985807    1.3124754    2.7126168 
        2.47   -2.9996242    1.3130883    2.7093326 
       2.475   -2.9998844    1.3099263      2.72579 
        2.48   -3.0001454    1.3032571    2.7593029 
       2.485    -3.000013    1.2937106    2.8069906 
        2.49   -2.9987048    1.2827188    2.8627212 
       2.495   -2.9983112    1.2725886     2.911833 
         2.5   -2.9971342    1.2658883    2.9446615 
       2.505   -2.9979168    1.2644187     2.948098 
        2.51   -2.9977877    1.2684194    2.9251774 
       2.515   -2.9971375    1.2765687    2.8810302 
        2.52   -2.9968785    1.2867643    2.8237184 
       2.525   -2.9966171    1.2973392    2.7616811 
        2.53   -2.9967474    1.3080225    2.6961152 
       2.535   -2.9966157    1.3198809     2.624031 
        2.54   -2.9972664    1.3342283    2.5387586 
       2.545   -2.9975283    1.3512559    2.4422384 
        2.55   -2.9979224    1.3695062    2.3409644 
       2.555    -2.998577    1.3866248    2.2462205 
        2.56   -2.9989701     1.400301    2.1701089 
       2.565   -2.9985788     1.408858    2.1217484 
        2.57   -2.9996233    1.4114204    2.1020048 
       2.575   -2.9980562    1.4079337    2.1176654 
        2.58   -2.9977934    1.3991688    2.1587719 
       2.585   -2.9974006    1.3865988     2.220451 
        2.59   -2.9972686    1.3720833     2.293066 
       2.595   -2.9980511    1.3573798    2.3670049 
         2.6   -2.9977896    1.3437472    2.4391664 
       2.605   -2.9977898    1.3317991    2.5041467 
        2.61   -2.9976582    1.3218246    2.5608668 
       2.615   -2.9979181    1.3141611    2.6068316 
        2.62   -2.9972643    1.3091904    2.6425438 
       2.625   -2.9964818    1.3068261    2.6673079 
        2.63   -2.9966135    1.3060704    2.6841588 
       2.635   -2.9973983    1.3049909    2.7023991 
        2.64   -2.9968785    1.3012354    2.7357119 
       2.645   -2.9957046    1.2929799    2.7910955 
        2.65   -2.9962258    1.2797204    2.8666569 
       2.655    -2.996093    1.2626272    2.9602256 
        2.66   -2.9956989    1.2443223    3.0585463 
       2.665   -2.9959573    1.2281808    3.1440392 
        2.67   -2.9962161    1.2174185    3.2024867 
       2.675   -2.9955628    1.2141042    3.2253521 
        2.68   -2.9953027    1.2186756    3.2082029 
       2.685   -2.9956961    1.2300416    3.1554418 
        2.69   -2.9963499    1.2462166    3.0769854 
       2.695   -2.9962219    1.2649328     2.985474 
         2.7    -2.996746    1.2839756    2.8896152 
       2.705   -2.9962253    1.3012867    2.8024626 
        2.71   -2.9953132     1.315028    2.7323278 
       2.715    -2.995054    1.3236425    2.6854362 
        2.72    -2.994664    1.3260271    2.6685537 
       2.725   -2.9942725    1.3218245    2.6833595 
        2.73   -2.9937482     1.311627      2.72734 
       2.735   -2.9938768    1.2969843    2.7918572 
        2.74   -2.9946574    1.2801537    2.8661672 
       2.745   -2.9943944     1.263507    2.9415187 
        2.75   -2.9940019    1.2490622    3.0066809 
       2.755   -2.9940017    1.2382438    3.0537715 
        2.76   -2.9940018    1.2319939    3.0787568 
       2.765   -2.9942629    1.2307825    3.0790061 
        2.77   -2.9945242    1.2343921    3.0560344 
       2.775   -2.9940035    1.2418825    3.0155111 
        2.78     -2.99531    1.2519299    2.9597147 
       2.785   -2.9946594    1.2628131    2.9030338 
        2.79   -2.9944016    1.2721739    2.8530003 
       2.795   -2.9940131    1.2771545    2.8237425 
         2.8   -2.9941439    1.2754252    2.8248547 
       2.805   -2.9940117    1.2665558    2.8593405 
        2.81   -2.9945291    1.2529149     2.914701 
       2.815    -2.994132    1.2393167    2.9714931 
        2.82   -2.9939994     1.230896    3.0046133 
       2.825   -2.9938707    1.2301059     3.003285 
        2.83   -2.9941361    1.2352968    2.9739782 
       2.835   -2.9946619     1.242422    2.9349325 
        2.84   -2.9946631    1.2478999    2.9037859 
       2.845   -2.9941404    1.2500456    2.8887214 
        2.85   -2.9945299    1.2488782     2.887958 
       2.855   -2.9955731    1.2454334    2.8977414 
        2.86    -2.995963    1.2410484    2.9143656 
       2.865   -2.9955715    1.2367795     2.933279 
        2.87   -2.9960949    1.2329684    2.9499937 
       2.875   -2.9966161    1.2293295    2.9668172 
        2.88   -2.9962236    1.2255968    2.9858203 
       2.885   -2.9967448    1.2222376    3.0013491 
        2.89   -2.9973956    1.2206377    3.0079357 
       2.895   -2.9970035    1.2224834    2.9995363 
         2.9   -2.9977869    1.2288561    2.9675966 
       2.905   -2.9984415    1.2396155    2.9148368 
        2.91   -2.9972691    1.2534475    2.8501795 
       2.915   -2.9975326    1.2684179    2.7776722 
        2.92   -2.9967509    1.2827747    2.7099508 
       2.925   -2.9963596    1.2954972    2.6503937 
        2.93   -2.9962304    1.3061642    2.6021914 
       2.935     -2.99571     1.314333    2.5692341 
        2.94   -2.9959722    1.3190339    2.5544146 
       2.945   -2.9958436    1.3190006     2.565034 
        2.95   -2.9966259    1.3137254    2.6005101 
       2.955   -2.9970142    1.3044726    2.6561472 
        2.96   -2.9974026    1.2943444    2.7160461 
       2.965    -2.997269    1.2872714    2.7619085 
        2.97   -2.9973978    1.2864819    2.7767281 
       2.975   -2.9977905    1.2931779    2.7541195 
        2.98   -2.9976625    1.3063749    2.6993954 
       2.985   -2.9976645    1.3236084     2.622857 
        2.99   -2.9964918    1.3419275    2.5407509 
       2.995   -2.9962329    1.3585386    2.4636116 
           3   -2.9955818    1.3710914    2.4054785 
       3.005   -2.9961053    1.3777489    2.3732489 
        3.01   -2.9968887    1.3772644    2.3747649 
       3.015   -2.9959755    1.3690791    2.4159598 
        3.02   -2.9959746    1.3535092    2.4909702 
       3.025   -2.9959733    1.3320469    2.5938379 
        3.03   -2.9957093    1.3074723    2.7116065 
       3.035   -2.9971419    1.2834726    2.8237448 
        3.04   -2.9974015    1.2637375    2.9175941 
       3.045   -2.9976625    1.2507999    2.9794264 
        3.05   -2.9974044    1.2451521    3.0077325 
       3.055   -2.9964947     1.244919     3.011071 
        3.06   -2.9970202    1.2467916    3.0007956 
       3.065   -2.9971517    1.2480716    2.9919246 
        3.07   -2.9971499    1.2482906    2.9863014 
       3.075    -2.995581    1.2492839    2.9783268 
        3.08   -2.9953182    1.2536551    2.9522114 
       3.085   -2.9953183     1.262832    2.9036036 
        3.09   -2.9941447    1.2762467    2.8377995 
       3.095   -2.9938854    1.2918319    2.7612498 
         3.1   -2.9931039    1.3071614    2.6877631 
       3.105   -2.9937571    1.3202477    2.6239555 
        3.11   -2.9942792    1.3296818     2.579295 
       3.115   -2.9941477    1.3347243    2.5583905 
        3.12   -2.9941469    1.3353834    2.5600544 
       3.125   -2.9949289     1.332493    2.5794017 
        3.13   -2.9938836    1.3274685    2.6139287 
       3.135   -2.9949268    1.3218266    2.6499541 
        3.14   -2.9942733    1.3168845     2.686889 
       3.145    -2.994664    1.3136611     2.715009 
        3.15   -2.9941401     1.313077    2.7327084 
       3.155   -2.9949229    1.3158741    2.7327135 
        3.16   -2.9960976    1.3222072    2.7157856 
       3.165   -2.9967524    1.3310352    2.6881108 
        3.17   -2.9968847    1.3402067    2.6594447 
       3.175   -2.9954502    1.3472494    2.6427792 
        3.18   -2.9947986    1.3502233    2.6433498 
       3.185   -2.9947984     1.348141    2.6659237 
        3.19   -2.9936236    1.3409563    2.7135566 
       3.195   -2.9941446    1.3293035    2.7784735 
         3.2   -2.9953181    1.3143171    2.8566434 
       3.205   -2.9953163    1.2975962    2.9431342 
        3.21   -2.9955763    1.2811883    3.0258345 
       3.215   -2.9943995    1.2674556    3.0963555 
        3.22   -2.9953124    1.2585417    3.1392368 
       3.225   -2.9962264    1.2554074    3.1534996 
        3.23   -2.9957061       1.2572    3.1453134 
       3.235   -2.9966225    1.2617971    3.1198192 
        3.24   -2.9970151     1.267052    3.0901071 
       3.245   -2.9951869    1.2718077    3.0645255 
        3.25   -2.9945336    1.2761995    3.0376624 
       3.255   -2.9945326    1.2811997    3.0064299 
        3.26   -2.9951845    1.2879808    2.9661779 
       3.265   -2.9963595    1.2969556    2.9159143 
        3.27   -2.9958401    1.3071662      2.86404 
       3.275   -2.9958419    1.3165313    2.8168401 
        3.28    -2.995322    1.3226869     2.786886 
       3.285   -2.9945392     1.323863    2.7818178 
        3.29   -2.9946691    1.3194163    2.8024976 
       3.295   -2.9942754    1.3100395     2.847606 
         3.3   -2.9955782    1.2977469    2.9040024 
       3.305   -2.9953158    1.2851972    2.9643802 
        3.31   -2.9954471    1.2743887     3.016194 
       3.315   -2.9947969    1.2652841    3.0609432 
        3.32   -2.9953218    1.2557842    3.1042774 
       3.325    -2.995193    1.2434929    3.1591237 
        3.33   -2.9959733    1.2281781    3.2234701 
       3.335   -2.9958388    1.2128484    3.2863744 
        3.34   -2.9954435    1.2025083    3.3243827 
       3.345   -2.9954443    1.2010175    3.3194222 
        3.35   -2.9954496    1.2081346    3.2736289 
       3.355   -2.9961079    1.2194594     3.206182 
        3.36   -2.9968932    1.2299857    3.1414297 
       3.365   -2.9971553    1.2370443    3.0940653 
        3.37   -2.9970257    1.2393485    3.0710666 
       3.375   -2.9984622    1.2350659    3.0777704 
        3.38   -2.9985879    1.2237672    3.1199638 
       3.385   -2.9991013    1.2102242    3.1730092 
        3.39   -2.9996174    1.2028674    3.1996136 
       3.395   -2.9993587     1.206619    3.1785609 
         3.4   -3.0005394    1.2189525    3.1164568 
       3.405    -3.000282    1.2337344     3.044451 
        3.41   -2.9995002    1.2462658     2.982236 
       3.415   -2.9988468    1.2546219     2.938019 
        3.42   -2.9985843    1.2587785    2.9121718 
       3.425   -2.9987134    1.2595889    2.9014184 
        3.43   -2.9979291    1.2581833    2.9031191 
       3.435   -2.9984509    1.2556425    2.9090586 
        3.44   -3.0000171    1.2527859    2.9159997 
       3.445   -2.9991029    1.2500807    2.9273421 
        3.45   -2.9987113    1.2477247    2.9371619 
       3.455    -2.997928    1.2458301    2.9460752 
        3.46    -2.997927    1.2446177     2.950825 
       3.465   -2.9980569    1.2446577    2.9495645 
        3.47   -2.9980554    1.2469523    2.9379043 
       3.475   -2.9983164    1.2526854    2.9099014 
        3.48   -2.9985795    1.2621994    2.8645438 
       3.485   -2.9992349     1.274101    2.8076135 
        3.49   -2.9996291    1.2855369     2.753109 
       3.495   -3.0002828    1.2937329    2.7129511 
         3.5   -2.9993681    1.2974691    2.6959165 
       3.505   -2.9987143    1.2974185    2.6966267 
        3.51   -2.9979305    1.2950136    2.7098096 
       3.515   -2.9974088    1.2909297    2.7320111 
        3.52   -2.9959732    1.2846964    2.7670906 
       3.525   -2.9958436    1.2754847    2.8149058 
        3.53   -2.9962354     1.262988    2.8776814 
       3.535   -2.9962343    1.2476283    2.9543782 
        3.54    -2.995712    1.2304102    3.0399078 
       3.545   -2.9968849    1.2127991    3.1231149 
        3.55   -2.9970131    1.1969372    3.1978683 
       3.555   -2.9976638      1.18543    3.2493866 
        3.56    -2.998056    1.1802063    3.2700494 
       3.565   -2.9977982    1.1808875    3.2620035 
        3.57   -2.9975411    1.1847259    3.2364221 
       3.575   -2.9984554    1.1887442    3.2046864 
        3.58   -2.9992352    1.1927568    3.1701131 
       3.585   -2.9994918    1.2002941     3.118717 
        3.59   -2.9989696    1.2153717     3.034645 
       3.595   -2.9985829    1.2374526    2.9201634 
         3.6   -2.9980661    1.2610201    2.8011278 
       3.605   -2.9980676    1.2799742    2.7046295 
        3.61   -2.9979373    1.2907877    2.6483833 
       3.615   -2.9978049    1.2926549    2.6361635 
        3.62   -2.9981934    1.2868434    2.6611567 
       3.625   -2.9984503    1.2763144    2.7103859 
        3.63   -2.9981859    1.2650618    2.7655225 
       3.635   -2.9985761    1.2567096    2.8074443 
        3.64   -2.9984471     1.252798    2.8302489 
       3.645   -2.9987107    1.2523977    2.8360077 
        3.65   -2.9988443    1.2533854    2.8348111 
       3.655   -2.9989754    1.2538377    2.8351074 
        3.66   -2.9997593    1.2525718    2.8412685 
       3.665   -2.9991059    1.2491673     2.858555 
        3.67   -2.9983212     1.243954    2.8831674 
       3.675   -2.9981895    1.2381761    2.9080153 
        3.68   -2.9977961    1.2337312    2.9257794 
       3.685   -2.9985772    1.2324635    2.9258003 
        3.69   -2.9990994    1.2352698    2.9062315 
       3.695   -2.9993611    1.2418688    2.8683601 
         3.7   -2.9989703    1.2511258    2.8180267 
       3.705   -2.9989711    1.2616406    2.7601432 
        3.71   -2.9989715    1.2722702    2.7008865 
       3.715   -2.9983184    1.2825046    2.6441065 
        3.72   -2.9985794    1.2925005    2.5872291 
       3.725   -2.9984489    1.3025722    2.5315416 
        3.73   -2.9985806    1.3125168    2.4775062 
       3.735   -2.9983209    1.3213416    2.4310368 
        3.74   -2.9987136     1.327779    2.3964019 
       3.745   -2.9989743     1.331098    2.3783011 
        3.75   -3.0001487    1.3314818    2.3742601 
       3.755   -2.9996247    1.3299228     2.383906 
        3.76   -2.9996232     1.327819    2.3973394 
       3.765   -2.9997523    1.3264851    2.4092935 
        3.77   -3.0002741    1.3266366    2.4162428 
       3.775    -3.000798    1.3280194    2.4200917 
        3.78   -3.0001464    1.3294714     2.428239 
       3.785   -3.0008005    1.3292779    2.4446596 
        3.79    -2.999887    1.3258027    2.4813088 
       3.795   -3.0005392     1.318134    2.5371372 
         3.8    -2.999493    1.3064026    2.6163277 
       3.805   -2.9988385     1.291665    2.7100102 
        3.81   -2.9990985    1.2755118    2.8092978 
       3.815   -2.9989677    1.2594822    2.9083564 
        3.82   -2.9994892     1.244745    2.9992872 
       3.825   -3.0000107    1.2321147     3.078635 
        3.83    -3.000663    1.2221061    3.1433335 
       3.835   -3.0006647    1.2146541    3.1944706 
        3.84   -3.0002752    1.2089375    3.2349045 
       3.845   -3.0007979    1.2037293    3.2675661 
        3.85   -3.0013203    1.1982297    3.2970354 
       3.855   -3.0019728    1.1925943    3.3218977 
        3.86   -3.0027528    1.1880299    3.3362475 
       3.865   -3.0022278    1.1865529    3.3328466 
        3.87   -3.0023569    1.1905605    3.2976029 
       3.875   -3.0019649     1.202024    3.2236033 
        3.88   -3.0027497    1.2216318    3.1053956 
       3.885    -3.003273    1.2483913    2.9503433 
        3.89   -3.0044505    1.2800007    2.7683889 
       3.895   -3.0047147     1.313582    2.5765029 
         3.9   -3.0036731    1.3462837    2.3899745 
       3.905   -3.0048497    1.3755967    2.2164064 
        3.91   -3.0038066    1.3994835    2.0738577 
       3.915   -3.0030253    1.4164622    1.9666031 
        3.92   -3.0026342    1.4256329    1.8995948 
       3.925   -3.0036791    1.4266409    1.8733128 
        3.93   -3.0038084    1.4196013     1.890883 
       3.935   -3.0034163    1.4051507    1.9480209 
        3.94   -3.0035448    1.3848168     2.035022 
       3.945   -3.0040636    1.3613515    2.1381978 
        3.95   -3.0045822    1.3388181    2.2385696 
       3.955   -3.0047107     1.321642    2.3157997 
        3.96   -3.0057546    1.3130034    2.3527989 
       3.965   -3.0060169    1.3135276    2.3490462 
        3.97   -3.0066732    1.3212903    2.3112902 
       3.975   -3.0041958    1.3330403    2.2601189 
        3.98   -3.0036758    1.3456116    2.2022621 
       3.985   -3.0030247    1.3566809    2.1523066 
        3.99   -3.0041997    1.3648512     2.114038 
       3.995   -3.0034146    1.3697921    2.0954906 
           4   -3.0028921    1.3721499    2.0906179 
       4.005   -3.0034141    1.3730143    2.0935381 
        4.01   -3.0031532    1.3732621    2.1035273 
       4.015   -3.0025008    1.3730823    2.1193421 
        4.02    -3.002894    1.3720239    2.1409591 
       4.025   -3.0026333    1.3693188    2.1747402 
        4.03   -3.0031558    1.3643343    2.2213193 
       4.035   -3.0036772    1.3569824    2.2822993 
        4.04   -3.0035452    1.3477907    2.3560412 
       4.045   -3.0035442     1.337755     2.436442 
        4.05   -3.0032819    1.3279016    2.5189928 
       4.055   -3.0043269    1.3188766     2.597687 
        4.06   -3.0040668    1.3106903    2.6760587 
       4.065   -3.0036768    1.3026969    2.7545036 
        4.07   -3.0036777    1.2939737    2.8357168 
       4.075   -3.0032865    1.2839012     2.923122 
        4.08   -3.0028937    1.2726923    3.0145556 
       4.085   -3.0028928    1.2615597    3.1035644 
        4.09   -3.0027616    1.2519985    3.1837959 
       4.095   -3.0017178    1.2447323    3.2527734 
         4.1   -3.0010669    1.2390488    3.3110022 
       4.105   -3.0014603    1.2333167    3.3642644 
        4.11   -3.0009393    1.2259993    3.4222453 
       4.115   -3.0013305     1.216403    3.4849254 
        4.12   -3.0006771    1.2049093    3.5536116 
       4.125   -3.0010677    1.1927164    3.6194955 
        4.13   -3.0010665    1.1813796    3.6777364 
       4.135   -3.0002828    1.1723158    3.7224148 
        4.14   -3.0005438    1.1664603    3.7462397 
       4.145    -3.000413    1.1642489    3.7494291 
        4.15   -3.0011972    1.1658269     3.729299 
       4.155    -3.000024    1.1711348    3.6911485 
        4.16   -2.9992411    1.1796356    3.6343775 
       4.165   -2.9989806     1.190216    3.5647197 
        4.17   -2.9989817    1.2013686    3.4903947 
       4.175    -2.998983    1.2115479    3.4197347 
        4.18   -2.9991139    1.2196654    3.3581826 
       4.185   -2.9991125    1.2256423    3.3070248 
        4.19   -2.9995023     1.230562    3.2609221 
       4.195   -3.0005455    1.2359583    3.2126808 
         4.2   -3.0011969    1.2428206    3.1593331 
       4.205    -3.001066    1.2513852    3.1001574 
        4.21   -3.0002825    1.2616096    3.0348718 
       4.215   -3.0002814    1.2734816    2.9612452 
        4.22   -2.9994994     1.286617    2.8835789 
       4.225   -2.9995007    1.2999591    2.8043576 
        4.23   -2.9993712    1.3119743    2.7321392 
       4.235   -2.9995019     1.321397    2.6721025 
        4.24   -2.9995002    1.3280677    2.6257812 
       4.245   -2.9989758    1.3331329    2.5889122 
        4.25   -2.9979304    1.3383478    2.5538794 
       4.255   -2.9972782    1.3448598    2.5143475 
        4.26   -2.9979332    1.3523598    2.4705492 
       4.265   -2.9980658    1.3592083    2.4329926 
        4.27   -2.9975455    1.3633772    2.4112494 
       4.275    -2.998068    1.3633336    2.4098136 
        4.28   -2.9981988    1.3584208    2.4341774 
       4.285   -2.9979368    1.3488248    2.4834836 
        4.29   -2.9968914     1.335463    2.5539612 
       4.295   -2.9968893    1.3197772    2.6356524 
         4.3   -2.9968879    1.3035415    2.7214748 
       4.305   -2.9971478    1.2886488    2.8016508 
        4.31   -2.9974077    1.2768611    2.8679386 
       4.315     -2.99793    1.2693847    2.9140408 
        4.32   -2.9980634    1.2661999    2.9408665 
       4.325    -2.999111    1.2655575    2.9541118 
        4.33   -2.9997668    1.2643036    2.9698432 
       4.335     -3.00016    1.2592797    3.0016228 
        4.34   -3.0008113      1.24904    3.0544723 
       4.345   -3.0006768    1.2348561     3.123575 
        4.35   -3.0010639    1.2205133    3.1890431 
       4.355   -3.0007987    1.2110313    3.2296164 
        4.36   -3.0001446    1.2106373    3.2255572 
       4.365   -3.0014518    1.2210307    3.1657392 
        4.37   -3.0008028    1.2406513    3.0640297 
       4.375   -3.0010687    1.2655941    2.9345589 
        4.38   -3.0014645    1.2912451    2.8009403 
       4.385   -3.0018591    1.3135499    2.6833504 
        4.39   -3.0018609    1.3295154    2.5975546 
       4.395    -3.000948    1.3369399    2.5554254 
         4.4   -3.0010805    1.3342293     2.561263 
       4.405   -3.0004266    1.3211903    2.6182485 
        4.41   -2.9988546    1.3006142    2.7128915 
       4.415   -2.9987183    1.2785619    2.8130022 
        4.42   -2.9981953    1.2613275    2.8918896 
       4.425   -2.9979358    1.2517859    2.9340954 
        4.43   -2.9987203    1.2492573    2.9400984 
       4.435    -2.998068    1.2520843    2.9210326 
        4.44   -2.9974157    1.2591453    2.8804162 
       4.445   -2.9980702    1.2694231    2.8220279 
        4.45    -2.996375    1.2811289    2.7609625 
       4.455   -2.9963763    1.2919122     2.702262 
        4.46    -2.996768    1.2998745    2.6571613 
       4.465   -2.9963763    1.3043387    2.6310441 
        4.47   -2.9972886    1.3058259    2.6184908 
       4.475   -2.9976794    1.3055232    2.6170779 
        4.48   -2.9971574    1.3046457    2.6218394 
       4.485   -2.9967657    1.3040299    2.6272866 
        4.49   -2.9972886    1.3038998    2.6311188 
       4.495   -2.9975512    1.3037061    2.6377978 
         4.5   -2.9962482    1.3018567    2.6566262 
       4.505   -2.9972952    1.2959674    2.6919928 
        4.51   -2.9982098    1.2838705    2.7570547 
       4.515    -2.997947    1.2652375     2.854084 
        4.52    -2.998203    1.2428049    2.9670991 
       4.525   -2.9985886    1.2222342    3.0704718 
        4.53    -2.998585    1.2099366    3.1357216 
       4.535   -2.9993701    1.2096134    3.1441728 
        4.54   -2.9992451    1.2199586    3.1042859 
       4.545    -2.998859    1.2357232    3.0387615 
        4.55   -2.9989926     1.250851     2.974226 
       4.555   -2.9991244    1.2609153    2.9322654 
        4.56   -3.0001668    1.2639297     2.921075 
       4.565   -3.0008168    1.2601342    2.9418752 
        4.57   -3.0005523    1.2517944    2.9850264 
       4.575   -3.0004164    1.2430996    3.0294355 
        4.58   -3.0005438    1.2391221    3.0515726 
       4.585   -3.0005443    1.2431021    3.0369909 
        4.59   -3.0006777    1.2545582     2.986791 
       4.595   -3.0002883    1.2705627    2.9147805 
         4.6   -2.9997695    1.2879008    2.8350919 
       4.605   -3.0001644    1.3036277    2.7600509 
        4.61   -3.0004276     1.315074    2.7041525 
       4.615   -3.0010801    1.3203525    2.6758229 
        4.62   -3.0009482    1.3189223    2.6799957 
       4.625   -3.0006852    1.3116584    2.7120678 
        4.63   -2.9996394    1.3004346    2.7646928 
       4.635   -3.0002901     1.287501    2.8235594 
        4.64   -3.0006798     1.274914    2.8819546 
       4.645   -3.0009407    1.2643969    2.9312728 
        4.65    -3.000809    1.2573944    2.9648454 
       4.655      -3.0012    1.2551012    2.9753862 
        4.66   -3.0014606     1.258307    2.9601964 
       4.665   -3.0014612    1.2670954    2.9192118 
        4.67   -3.0013331    1.2806458    2.8563596 
       4.675   -3.0008132    1.2971801    2.7806569 
        4.68   -3.0010778    1.3142372     2.702118 
       4.685   -3.0018632    1.3291006    2.6341716 
        4.69   -3.0016041    1.3394469    2.5904179 
       4.695   -3.0019958    1.3438922     2.574733 
         4.7   -3.0035626    1.3422339    2.5872251 
       4.705   -3.0035613    1.3351957    2.6284437 
        4.71   -3.0039512    1.3241255    2.6881088 
       4.715   -3.0038187    1.3109533    2.7576374 
        4.72   -3.0017277    1.2983893    2.8256758 
       4.725   -3.0036829    1.2899402    2.8657125 
        4.73   -3.0036818    1.2889294    2.8717439 
       4.735   -3.0031612    1.2967387    2.8349983 
        4.74   -3.0035546    1.3120267    2.7594019 
       4.745     -3.00395    1.3315851    2.6615845 
        4.75   -3.0040835    1.3518164    2.5594524 
       4.755    -3.003824    1.3696519     2.468704 
        4.76   -3.0042172     1.382693    2.4002531 
       4.765    -3.004871    1.3889809    2.3650288 
        4.77   -3.0048715    1.3869553    2.3724648 
       4.775   -3.0044795    1.3757424    2.4263516 
        4.78   -3.0047397    1.3556586     2.523287 
       4.785   -3.0038236    1.3285421    2.6570907 
        4.79   -3.0031668    1.2976786    2.8094174 
       4.795   -3.0032935    1.2673151    2.9588085 
         4.8     -3.00316    1.2418467    3.0857556 
       4.805   -3.0038117    1.2246922    3.1719141 
        4.81   -3.0036814    1.2174124      3.21178 
       4.815   -3.0040756     1.219443    3.2051737 
        4.82   -3.0039473    1.2287502    3.1627994 
       4.825   -3.0049927     1.242793    3.0937791 
        4.83    -3.004994    1.2592042    3.0130786 
       4.835   -3.0040814    1.2760603    2.9302423 
        4.84   -3.0046035    1.2917625     2.849868 
       4.845   -3.0046037    1.3048306    2.7827813 
        4.85   -3.0032998    1.3138314    2.7375449 
       4.855   -3.0035618    1.3174728    2.7159756 
        4.86   -3.0025177    1.3148158      2.72724 
       4.865   -3.0019951    1.3053845    2.7706425 
        4.87   -3.0027777    1.2893212     2.843963 
       4.875    -3.002254    1.2677885    2.9454508 
        4.88   -3.0038175    1.2434831    3.0567721 
       4.885   -3.0040743    1.2205829     3.163755 
        4.89   -3.0039413    1.2036725    3.2439049 
       4.895   -3.0036814    1.1957644    3.2832009 
         4.9   -3.0040761    1.1967752    3.2810661 
       4.905   -3.0044738    1.2031981    3.2546474 
        4.91   -3.0040881    1.2093194    3.2312942 
       4.915   -3.0030476    1.2094567    3.2365538 
        4.92   -3.0025259    1.2003768    3.2831827 
       4.925   -3.0029131    1.1825336    3.3682263 
        4.93   -3.0038205    1.1600469    3.4732808 
       4.935   -3.0029013    1.1393341    3.5726996 
        4.94   -3.0022454    1.1266027    3.6346678 
       4.945   -3.0021161    1.1251726    3.6432465 
        4.95   -3.0022515    1.1341154    3.6024289 
       4.955   -3.0025177    1.1491623     3.531094 
        4.96   -3.0027827    1.1651957    3.4521923 
       4.965   -3.0020008    1.1786341    3.3835762 
        4.97    -3.002391     1.188559    3.3262539 
       4.975   -3.0013435    1.1963839    3.2786718 
        4.98   -3.0018638    1.2044743    3.2261621 
       4.985   -3.0010809    1.2144732     3.166687 
        4.99   -3.0013443    1.2262255    3.0977972 
       4.995   -3.0012149    1.2380053    3.0299699 
           5   -3.0004323    1.2476588    2.9736011 
       5.005   -2.9991267    1.2537629    2.9350921 
        5.01   -2.9984725    1.2561362    2.9133614 
       5.015   -2.9976881    1.2557603    2.9051144 
        5.02   -2.9971656    1.2541351    2.9027015 
       5.025   -2.9974258    1.2525693    2.8989247 
        5.03   -2.9978173    1.2519097    2.8904749 
       5.035   -2.9985997    1.2526508    2.8743051 
        5.04   -2.9987297    1.2550075     2.850818 
       5.045   -2.9993827    1.2589378    2.8182459 
        5.05   -2.9997749    1.2642428    2.7789446 
       5.055   -3.0006878    1.2706827    2.7330992 
        5.06    -3.000296    1.2781046    2.6849807 
       5.065   -3.0000361    1.2862362    2.6344158 
        5.07   -3.0000372    1.2943832    2.5852835 
       5.075    -2.998863    1.3013144    2.5463407 
        5.08   -2.9979514    1.3054282    2.5232832 
       5.085   -2.9984748    1.3050974    2.5219493 
        5.09   -2.9997808    1.2991687    2.5484679 
       5.095   -3.0004329    1.2875084    2.6052491 
         5.1   -2.9999084    1.2713138    2.6868205 
       5.105   -3.0004277    1.2531647    2.7769635 
        5.11   -3.0015991    1.2365263    2.8597237 
       5.115   -3.0015983    1.2247404    2.9222822 
        5.12   -3.0012061    1.2197977    2.9541373 
       5.125   -3.0008163    1.2214633    2.9558013 
        5.13   -3.0000365    1.2272728     2.939383 
       5.135   -3.0001705     1.233465    2.9202636 
        5.14   -3.0009569    1.2363977    2.9157136 
       5.145   -3.0013488    1.2338313    2.9378273 
        5.15    -3.001608    1.2254975    2.9873892 
       5.155   -3.0009531    1.2130424    3.0578903 
        5.16   -3.0000358    1.1994377    3.1341486 
       5.165   -2.9995113    1.1881331    3.1986825 
        5.17   -2.9996404    1.1817876    3.2381046 
       5.175   -2.9987269    1.1813127    3.2500665 
        5.18   -2.9978147     1.186006    3.2354252 
       5.185   -2.9976846     1.194348    3.1994794 
        5.19   -2.9978158    1.2047298    3.1503642 
       5.195   -2.9974242    1.2159909     3.094986 
         5.2   -2.9975537    1.2277026     3.034353 
       5.205   -2.9979445    1.2399049    2.9695104 
        5.21   -2.9982046    1.2526107    2.9018505 
       5.215   -2.9982052    1.2655406    2.8336054 
        5.22   -2.9985967    1.2782265    2.7665114 
       5.225   -2.9987281    1.2902062    2.7043568 
        5.23   -2.9984669    1.3010084    2.6500752 
       5.235   -2.9989896    1.3101693    2.6044506 
        5.24   -2.9980767    1.3173202    2.5733218 
       5.245   -2.9987295     1.322096    2.5541405 
        5.25   -2.9995138     1.323916    2.5522149 
       5.255   -2.9997761    1.3218815     2.572692 
        5.26   -3.0002991    1.3150485    2.6182344 
       5.265   -3.0004298    1.3029099    2.6913198 
        5.27   -3.0000374    1.2859448    2.7887986 
       5.275   -3.0001656    1.2659551    2.8994487 
        5.28   -2.9988571    1.2459964    3.0111538 
       5.285   -2.9996387    1.2295299    3.1014029 
        5.29    -2.999116    1.2189894    3.1636256 
       5.295   -2.9984644    1.2148909    3.1930097 
         5.3    -2.998205     1.216212    3.1932592 
       5.305   -2.9982066    1.2213239    3.1724272 
        5.31   -2.9983382    1.2286058    3.1389493 
       5.315   -2.9979481      1.23671    3.1010662 
        5.32   -2.9989931    1.2445401    3.0617304 
       5.325    -2.999124    1.2509178    3.0308255 
        5.33   -2.9988631    1.2545107    3.0139567 
       5.335   -2.9987327    1.2543573    3.0146707 
        5.34   -2.9984703    1.2505643    3.0327241 
       5.345   -2.9999044    1.2444212    3.0589811 
        5.35   -2.9991197    1.2379658    3.0899728 
       5.355   -2.9992488    1.2332931    3.1106246 
        5.36   -2.9992479     1.232059    3.1145433 
       5.365   -2.9988561    1.2352243    3.0973766 
        5.37   -2.9985949    1.2429722    3.0572297 
       5.375   -2.9987267    1.2547427    2.9961091 
        5.38    -2.999772    1.2695174    2.9178354 
       5.385   -2.9999023      1.28632    2.8300207 
        5.39   -2.9991197    1.3045985    2.7357467 
       5.395   -2.9997729    1.3241392    2.6329529 
         5.4    -3.000034     1.344716    2.5265094 
       5.405   -2.9993825    1.3656313    2.4215229 
        5.41   -2.9986011    1.3854298    2.3244646 
       5.415   -2.9988639    1.4019983    2.2441162 
        5.42    -2.998866    1.4129078     2.194418 
       5.425   -2.9987373    1.4159266    2.1858975 
        5.43   -2.9991287    1.4094425    2.2250336 
       5.435   -3.0000419    1.3927931    2.3144985 
        5.44   -3.0005629    1.3665003    2.4524889 
       5.445   -3.0006913    1.3324153    2.6292922 
        5.45   -3.0005579    1.2935764    2.8291264 
       5.455   -3.0009471    1.2538618     3.031202 
        5.46   -3.0021192    1.2172434    3.2150783 
       5.465   -3.0022472    1.1869884    3.3670223 
        5.47   -3.0012024    1.1650963    3.4767749 
       5.475    -3.001203    1.1521628    3.5371848 
        5.48   -3.0013349    1.1477895    3.5513148 
       5.485   -3.0014665     1.151036    3.5241393 
        5.49   -3.0010757    1.1605541    3.4636191 
       5.495   -3.0006856     1.174557    3.3783462 
         5.5   -3.0002948    1.1911215    3.2785438 
       5.505   -2.9999029    1.2088916     3.171888 
        5.51   -3.0001644    1.2276809    3.0600781 
       5.515   -3.0000344    1.2477017    2.9457157 
        5.52   -2.9995145    1.2679257    2.8349651 
       5.525   -2.9991261     1.285348    2.7414418 
        5.53   -2.9987363    1.2962839    2.6822711 
       5.535    -2.998344    1.2985015     2.667488 
        5.54    -2.998211     1.292297    2.6950709 
       5.545   -2.9982072    1.2800821    2.7538164 
        5.55   -2.9975516    1.2651265     2.829404 
       5.555   -2.9974195    1.2503087    2.9060425 
        5.56   -2.9988555    1.2373519     2.973203 
       5.565   -2.9989869    1.2268692    3.0317099 
        5.57   -2.9988571    1.2186734    3.0797042 
       5.575    -2.997422    1.2122987    3.1199989 
        5.58   -2.9975515    1.2074913    3.1482832 
       5.585   -2.9980726    1.2046391    3.1639239 
        5.59   -2.9980711    1.2048187    3.1628562 
       5.595   -2.9982009    1.2094263    3.1373641 
         5.6   -2.9983321    1.2194751     3.083094 
       5.605   -2.9985941    1.2349572    3.0001938 
        5.61   -2.9992496    1.2547083    2.8942008 
       5.615   -2.9993834    1.2767193    2.7766972 
        5.62   -2.9992546    1.2987109    2.6589099 
       5.625   -2.9999088    1.3186725    2.5498292 
        5.63   -2.9989963    1.3351167    2.4615246 
       5.635   -2.9988664    1.3471588    2.3959499 
        5.64   -2.9987361    1.3542694     2.358228 
       5.645   -2.9983456    1.3559224    2.3522971 
        5.65   -2.9973018    1.3512085    2.3835145 
       5.655   -2.9974329    1.3389212    2.4545047 
        5.66    -2.997302    1.3182765    2.5704228 
       5.665   -2.9975605    1.2902017    2.7249651 
        5.67   -2.9976868    1.2580659    2.9025399 
       5.675   -2.9983354    1.2269672    3.0779294 
        5.68   -2.9988553     1.201579    3.2297617 
       5.685   -2.9997689     1.184342    3.3448556 
        5.69    -2.999378    1.1752774    3.4247237 
       5.695   -2.9992494    1.1729176    3.4728886 
         5.7   -2.9987298    1.1750003    3.5005035 
       5.705   -2.9987338    1.1785235     3.519629 
        5.71   -2.9992581    1.1801323    3.5451994 
       5.715   -2.9995191    1.1773004     3.589158 
        5.72   -2.9987326    1.1700191    3.6519015 
       5.725   -2.9987266    1.1616281    3.7144785 
        5.73   -2.9979385    1.1577789    3.7531337 
       5.735   -2.9975465    1.1630998    3.7444645 
        5.74   -2.9972883    1.1781914    3.6855871 
       5.745   -2.9978139    1.2000065     3.588938 
        5.75   -2.9974249    1.2245429    3.4759357 
       5.755   -2.9979491    1.2484582    3.3600793 
        5.76   -2.9966463    1.2692571    3.2586153 
       5.765   -2.9962562    1.2850223    3.1772543 
        5.77    -2.996909    1.2944142    3.1228717 
       5.775   -2.9959956    1.2969608    3.1023995 
        5.78   -2.9961241    1.2934116    3.1085909 
       5.785   -2.9958594    1.2861945    3.1329461 
        5.79   -2.9961137    1.2801135      3.15296 
       5.795   -2.9962418    1.2812892    3.1434779 
         5.8   -2.9966393    1.2916561    3.0962479 
       5.805   -2.9970386    1.3051649    3.0384301 
        5.81   -2.9980842    1.3131883    3.0066902 
       5.815   -2.9991251    1.3116831    3.0196946 
        5.82   -2.9989887    1.3022372    3.0718344 
       5.825   -2.9992451    1.2893129    3.1400591 
        5.83    -2.998981    1.2771702    3.2058124 
       5.835   -2.9988494    1.2682053    3.2561481 
        5.84   -2.9983273    1.2630706    3.2879588 
       5.845   -2.9981968    1.2615689    3.3002509 
        5.85   -2.9987202    1.2632283    3.2945393 
       5.855   -2.9988511     1.267313    3.2758966 
        5.86   -2.9989829     1.272778    3.2486932 
       5.865   -2.9985921    1.2784113     3.219633 
        5.87   -2.9978105    1.2830837     3.194067 
       5.875   -2.9978106    1.2858886    3.1746967 
        5.88   -2.9976804    1.2861303     3.166543 
       5.885   -2.9979417    1.2833242    3.1711307 
        5.89   -2.9979407    1.2775305    3.1892736 
       5.895   -2.9987229    1.2696751    3.2151483 
         5.9   -2.9991128    1.2613303      3.24349 
       5.905    -2.999504      1.25391    3.2673139 
        5.91   -2.9991133    1.2477602    3.2861978 
       5.915   -2.9993746    1.2422628    3.3004167 
        5.92   -2.9988519    1.2369449    3.3142636 
       5.925   -2.9976763    1.2323079    3.3254411 
        5.93   -2.9975456    1.2292645    3.3274606 
       5.935   -2.9966326    1.2279219    3.3229426 
        5.94   -2.9971552    1.2274686     3.311949 
       5.945    -2.996893    1.2273835    3.3003138 
        5.95   -2.9970222    1.2282619     3.283526 
       5.955   -2.9962388    1.2314059    3.2580391 
        5.96   -2.9963699    1.2376314    3.2175082 
       5.965   -2.9961104    1.2465229    3.1661506 
        5.97   -2.9961123    1.2565425     3.110121 
       5.975   -2.9953308    1.2657526    3.0602006 
        5.98   -2.9963767    1.2724144    3.0205194 
       5.985   -2.9955945    1.2752336    3.0031628 
        5.99   -2.9953338     1.273447    3.0080254 
       5.995   -2.9952028    1.2670927     3.035503 
           6   -2.9954619    1.2572987    3.0798579 
       6.005   -2.9957201    1.2462426    3.1316326 
        6.01   -2.9955873    1.2365224    3.1793584 
       6.015   -2.9955863     1.230218    3.2123987 
        6.02    -2.995326     1.227977    3.2278803 
       6.025   -2.9958502    1.2288611    3.2275906 
        6.03   -2.9965033    1.2312588    3.2190863 
       6.035   -2.9967642    1.2340392    3.2077285 
        6.04    -2.996894    1.2370215    3.1936449 
       6.045    -2.997547    1.2406069    3.1741279 
        6.05   -2.9971558    1.2449693    3.1511896 
       6.055    -2.996765     1.249608    3.1259701 
        6.06   -2.9967673    1.2532136    3.1042446 
       6.065   -2.9968999    1.2540625     3.094719 
        6.07   -2.9970309    1.2505467     3.105065 
       6.075   -2.9971618    1.2419047     3.138579 
        6.08   -2.9972909    1.2288058    3.1916896 
       6.085   -2.9983326    1.2135913    3.2516365 
        6.09   -2.9984596    1.1997798    3.3046815 
       6.095   -2.9988498    1.1908888    3.3323839 
         6.1   -2.9992411    1.1891065    3.3247956 
       6.105   -2.9984595    1.1945888     3.282885 
        6.11   -2.9982005    1.2057889     3.211101 
       6.115   -2.9976797    1.2204855    3.1213219 
        6.12   -2.9979414    1.2367542    3.0215684 
       6.125   -2.9982031    1.2533408    2.9199244 
        6.13   -2.9972887    1.2695182    2.8227626 
       6.135   -2.9968971    1.2847023     2.731057 
        6.14   -2.9979422    1.2982626    2.6469741 
       6.145   -2.9976806    1.3096337    2.5779645 
        6.15   -2.9983334    1.3184972    2.5222406 
       6.155   -2.9980716    1.3248175    2.4829725 
        6.16   -2.9979408    1.3287516    2.4575345 
       6.165   -2.9979398     1.330723    2.4436661 
        6.17   -2.9967637    1.3314228    2.4398701 
       6.175   -2.9972847    1.3316806    2.4372267 
        6.18   -2.9975458    1.3322509    2.4347885 
       6.185   -2.9987208    1.3336198      2.42782 
        6.19   -2.9987211    1.3360395    2.4179893 
       6.195   -2.9988513    1.3396468    2.4021862 
         6.2     -2.99846    1.3446166    2.3805911 
       6.205   -2.9979388    1.3509427    2.3528271 
        6.21   -2.9979404    1.3579896    2.3211065 
       6.215   -2.9985958    1.3642354     2.292545 
        6.22   -2.9997723    1.3675813    2.2772341 
       6.225   -3.0002956    1.3661734    2.2857183 
        6.23    -2.999512    1.3591895    2.3229204 
       6.235   -2.9985961    1.3471772    2.3845646 
        6.24   -3.0000305    1.3318731    2.4588306 
       6.245   -3.0006817    1.3156818    2.5398393 
        6.25   -3.0004203    1.3008082    2.6177341 
       6.255   -3.0014656    1.2883584    2.6838344 
        6.26   -3.0008147    1.2778219    2.7450467 
       6.265   -3.0008173    1.2673638    2.8055558 
        6.27   -3.0001663    1.2550394    2.8758949 
       6.275   -3.0001646    1.2401073    2.9569568 
        6.28   -3.0006839    1.2238258    3.0429464 
       6.285   -3.0009419     1.209127    3.1216585 
        6.29   -2.9995049    1.1991296    3.1810512 
       6.295   -2.9984616    1.1953041    3.2108293 
         6.3   -2.9984645    1.1965346    3.2144756 
       6.305   -2.9987284    1.2000307      3.20543 
        6.31   -2.9988594    1.2031769    3.1961074 
       6.315   -2.9984666    1.2047339    3.1929199 
        6.32    -2.998987     1.205015      3.19248 
       6.325   -2.9998996    1.2052742    3.1902405 
        6.33   -2.9989854    1.2068163    3.1840238 
       6.335   -2.9988549     1.210251    3.1668784 
        6.34   -2.9985936    1.2153344    3.1411414 
       6.345   -2.9996381    1.2214029    3.1073052 
        6.35   -2.9987236    1.2279118    3.0729649 
       6.355   -2.9984636    1.2346305     3.035074 
        6.36   -2.9984638    1.2415177    2.9947558 
       6.365   -2.9979424    1.2484141    2.9544604 
        6.37   -2.9968992    1.2547499    2.9171977 
       6.375   -2.9975536    1.2595359    2.8843674 
        6.38   -2.9984689    1.2615092    2.8643542 
       6.385   -2.9988622    1.2595578    2.8637339 
        6.39   -2.9995139    1.2532803    2.8831252 
       6.395   -3.0006867    1.2436125    2.9178541 
         6.4   -2.9997705    1.2329323    2.9614231 
       6.405   -3.0012045    1.2241029    2.9938711 
        6.41   -3.0014663    1.2188758    3.0130247 
       6.415   -3.0010783    1.2165825     3.020944 
        6.42   -3.0009508    1.2146879    3.0273099 
       6.425    -3.001473    1.2108509    3.0417209 
        6.43   -3.0005575    1.2046768    3.0690955 
       6.435   -3.0010777    1.1977588    3.0975524 
        6.44   -3.0019888    1.1925451    3.1174263 
       6.445   -3.0017267    1.1914126    3.1201826 
        6.45   -3.0027711    1.1959712    3.0943573 
       6.455   -3.0026421    1.2062658    3.0436281 
        6.46    -3.002775    1.2204487    2.9739758 
       6.465   -3.0036899    1.2360104    2.8960599 
        6.47   -3.0034287    1.2513906    2.8206094 
       6.475   -3.0036902    1.2661404    2.7477974 
        6.48   -3.0029089    1.2796402    2.6836907 
       6.485   -3.0030406    1.2901881    2.6332029 
        6.49   -3.0031724    1.2957482    2.6070141 
       6.495   -3.0023883    1.2953832    2.6106518 
         6.5   -3.0033006    1.2900418    2.6355168 
       6.505   -3.0034276    1.2822064     2.674179 
        6.51   -3.0032942    1.2749063    2.7119104 
       6.515   -3.0026407    1.2706681    2.7375738 
        6.52   -3.0017278    1.2706677    2.7454299 
       6.525   -3.0021219    1.2743035    2.7357274 
        6.53   -3.0021241    1.2797062    2.7196325 
       6.535   -3.0027761    1.2853446    2.7025966 
        6.54   -3.0035582    1.2912138    2.6859422 
       6.545   -3.0031669    1.2979902    2.6692197 
        6.55   -3.0019937    1.3052901    2.6537998 
       6.555   -3.0017342    1.3113344    2.6448797 
        6.56   -3.0013432    1.3138935    2.6540062 
       6.565   -3.0021276    1.3109047    2.6879323 
        6.57   -3.0018661    1.3011562     2.754992 
       6.575   -3.0022553    1.2850514    2.8497853 
        6.58    -3.001077    1.2648652    2.9645982 
       6.585     -3.00003    1.2439828    3.0804255 
        6.59   -3.0000284    1.2255224    3.1805876 
       6.595   -3.0002892    1.2115221    3.2559708 
         6.6   -3.0005502    1.2031896    3.3006426 
       6.605    -2.999898     1.201344    3.3119946 
        6.61   -3.0001603     1.206083    3.2868726 
       6.615   -3.0004235     1.216214    3.2325549 
        6.62   -3.0005553    1.2297182    3.1590639 
       6.625   -3.0010782    1.2447514    3.0748198 
        6.63    -3.000687    1.2601886    2.9881032 
       6.635   -3.0008173     1.275448    2.9003765 
        6.64   -2.9997733    1.2900769    2.8174588 
       6.645   -2.9991212    1.3033417    2.7409468 
        6.65   -2.9991213    1.3142465    2.6754593 
       6.655   -2.9999048    1.3219607    2.6249173 
        6.66   -2.9997747    1.3262923    2.5930701 
       6.665   -3.0000344     1.327839    2.5752502 
        6.67   -3.0013397    1.3275529    2.5661615 
       6.675   -3.0009486    1.3260519    2.5672723 
        6.68   -3.0006883     1.323287    2.5756049 
       6.685   -3.0009495    1.3188656    2.5920041 
        6.69   -3.0008187    1.3126981    2.6180751 
       6.695   -3.0000342    1.3054871    2.6509483 
         6.7   -2.9999022    1.2986489    2.6823257 
       6.705   -3.0008158    1.2933886    2.7063134 
        6.71   -3.0012094    1.2896041    2.7258692 
       6.715   -3.0008192    1.2855972    2.7487718 
        6.72   -3.0012116    1.2791655    2.7818478 
       6.725    -3.000428    1.2693079    2.8319811 
        6.73   -3.0006856    1.2571586    2.8898212 
       6.735    -3.001466    1.2454382    2.9432304 
        6.74   -3.0000282    1.2369972    2.9830383 
       6.745   -3.0008107    1.2335509    2.9937494 
        6.75   -3.0006808    1.2354378    2.9782241 
       6.755   -3.0008131    1.2422019    2.9363621 
        6.76    -3.001336    1.2531632    2.8712239 
       6.765   -3.0009446    1.2674941    2.7891404 
        6.77   -3.0009461    1.2841522    2.6935975 
       6.775   -3.0001641    1.3018231    2.5934556 
        6.78   -2.9996414     1.319065     2.494857 
       6.785   -2.9999046    1.3343526    2.4050859 
        6.79   -3.0005583    1.3461343    2.3328438 
       6.795   -3.0004301     1.352945    2.2874383 
         6.8   -3.0000398    1.3536814    2.2735143 
       6.805   -2.9995177    1.3480404    2.2922206 
        6.81   -2.9992544    1.3370845    2.3378591 
       6.815   -3.0001653    1.3233297    2.3972031 
        6.82   -3.0002941     1.310109     2.458002 
       6.825   -2.9993791    1.3002455    2.5075885 
        6.83   -2.9995108    1.2949393    2.5370308 
       6.835   -2.9989907    1.2934926    2.5520538 
        6.84   -2.9995154     1.294236    2.5576902 
       6.845   -2.9995173    1.2955202    2.5644405 
        6.85    -2.999389    1.2958486    2.5790383 
       6.855    -2.999131    1.2934712    2.6098815 
        6.86   -2.9992647    1.2861084    2.6664217 
       6.865   -2.9990044    1.2716377    2.7587731 
        6.87   -2.9995244    1.2498574    2.8847499 
       6.875   -2.9987346    1.2243615    3.0303658 
        6.88   -2.9993821     1.202086    3.1592769 
       6.885   -3.0000349    1.1890736    3.2460858 
        6.89    -2.999387    1.1857728     3.289998 
       6.895   -2.9991293    1.1877524    3.3073156 
         6.9   -2.9991307      1.19043    3.3187092 
       6.905   -2.9984772     1.191825    3.3351705 
        6.91   -2.9991291    1.1919279    3.3544472 
       6.915   -2.9993899    1.1909663     3.378764 
        6.92   -2.9992593      1.18856     3.409887 
       6.925   -2.9995206     1.184157     3.448654 
        6.93   -3.0001713    1.1779987    3.4934178 
       6.935   -3.0016058    1.1715137    3.5365541 
        6.94   -3.0016045    1.1667366    3.5718804 
       6.945    -2.999386    1.1652153    3.5931137 
        6.95   -2.9993875     1.167183    3.5915185 
       6.955   -2.9992592    1.1715647    3.5750711 
        6.96   -2.9991305     1.176732    3.5504128 
       6.965   -2.9993917    1.1814679    3.5221221 
        6.97   -2.9993907    1.1855563    3.4920137 
       6.975   -2.9993892    1.1899135    3.4556351 
        6.98   -2.9993874    1.1960755    3.4063444 
       6.985   -2.9996476     1.205463    3.3378063 
        6.99   -3.0004304    1.2187898    3.2471903 
       6.995   -3.0005619    1.2358112    3.1384759 
           7   -3.0009551    1.2555953    3.0156911 
       7.005   -3.0008267    1.2769192    2.8872283 
        7.01   -3.0004371    1.2982217    2.7614802 
       7.015   -3.0001794    1.3172489    2.6497318 
        7.02   -2.9999214      1.33093    2.5674995 
       7.025   -2.9988786    1.3359728    2.5318038 
        7.03   -2.9986184    1.3299887    2.5512654 
       7.035   -2.9982249    1.3124993    2.6291941 
        7.04   -2.9973074    1.2854976    2.7563092 
       7.045   -2.9959973    1.2533523    2.9113337 
        7.05   -2.9965141    1.2218572    3.0628827 
       7.055   -2.9965109    1.1967059    3.1872823 
        7.06   -2.9963802    1.1818726    3.2643546 
       7.065    -2.996773    1.1787049    3.2856982 
        7.07   -2.9967759    1.1859704     3.257663 
       7.075   -2.9976926    1.2004884    3.1924491 
        7.08   -2.9970444    1.2180343    3.1136627 
       7.085   -2.9973096    1.2340862     3.038648 
        7.09   -2.9963977    1.2446477    2.9895428 
       7.095   -2.9969196    1.2474181    2.9731265 
         7.1    -2.997047    1.2430593    2.9896463 
       7.105    -2.997563    1.2357683    3.0192585 
        7.11   -2.9974286    1.2315651    3.0368196 
       7.115   -2.9970378    1.2344549    3.0236539 
        7.12   -2.9959965    1.2440439    2.9817119 
       7.125   -2.9958689     1.256925    2.9233002 
        7.13   -2.9966544    1.2693652    2.8650478 
       7.135    -2.996655    1.2786501    2.8220394 
        7.14   -2.9966547    1.2833398    2.7995442 
       7.145   -2.9973054    1.2834896    2.7961319 
        7.15   -2.9976939    1.2807305    2.8057304 
       7.155   -2.9983441     1.277765    2.8152136 
        7.16    -2.998995    1.2772127    2.8132512 
       7.165   -2.9982131    1.2803228    2.7968057 
        7.17   -2.9987369    1.2863699    2.7652734 
       7.175   -2.9984777      1.29318    2.7324394 
        7.18   -2.9992621    1.2982262     2.707537 
       7.185   -2.9992642    1.2995076    2.7033337 
        7.19   -2.9986108    1.2957447    2.7259117 
       7.195   -2.9984803    1.2863654    2.7760835 
         7.2   -2.9978267    1.2714524    2.8548285 
       7.205    -2.997174    1.2516518     2.957599 
        7.21   -2.9970428    1.2280392    3.0773926 
       7.215   -2.9971713    1.2022321    3.2057172 
        7.22   -2.9971673    1.1769815     3.329158 
       7.225   -2.9979466    1.1569511    3.4240981 
        7.23   -2.9983345      1.14792    3.4661388 
       7.235   -2.9985984    1.1531683     3.440379 
        7.24   -2.9983439    1.1702561     3.358582 
       7.245   -2.9983497    1.1925836    3.2496107 
        7.25   -2.9984843    1.2135229    3.1444968 
       7.255   -2.9995294    1.2288537    3.0623139 
        7.26   -2.9987454    1.2370839    3.0154032 
       7.265   -2.9973068    1.2389721     2.999458 
        7.27   -2.9961293    1.2367492    3.0035103 
       7.275   -2.9963868     1.233161    3.0134531 
        7.28   -2.9961257    1.2304939    3.0218899 
[...]
   27130   -1.2331746    1.5233174    1.2644091   0.58126352 
   27140   -1.2378772    1.5246879    1.2191916   0.58066662 
   27150   -1.2449452    1.5304214    1.1522776   0.58002303 
   27160   -1.2523254    1.5392686    1.0706829    0.5793458 
   27170   -1.2600678    1.5492108   0.98161495    0.5786509 
   27180   -1.2705454    1.5579908   0.89026646   0.57795591 
   27190   -1.2829295    1.5637618   0.80413041   0.57727881 
   27200   -1.2990153    1.5653748   0.72527948   0.57663668 
   27210   -1.3188678    1.5623002   0.65562824    0.5760452 
   27220   -1.3418326    1.5543057    0.5967644   0.57551829 
   27230   -1.3685733    1.5412713   0.54834344   0.57506781 
   27240   -1.3987758    1.5231751   0.51090214   0.57470367 
   27250   -1.4328761     1.500225    0.4837069   0.57443364 
   27260   -1.4697365    1.4728693   0.46740948   0.57426349 
   27270   -1.5098497    1.4419226   0.46018233   0.57419697 
   27280   -1.5502843    1.4086131    0.4632073   0.57423599 
   27290   -1.5898193    1.3746702    0.4744006   0.57438059 
   27300   -1.6262048    1.3421536    0.4917303   0.57462927 
   27310   -1.6594281     1.313078   0.51037845   0.57497939 
   27320   -1.6870336    1.2889473   0.52941361   0.57542802 
   27330   -1.7082948    1.2704186   0.54804904   0.57597216 
   27340   -1.7231987    1.2573376   0.56689699   0.57660886 
   27350   -1.7315086    1.2490956   0.58814402   0.57733512 
   27360   -1.7344678    1.2451186   0.61217177   0.57814753 
   27370   -1.7302575    1.2452918   0.64152484   0.57904199 
   27380   -1.7198092    1.2501003   0.67378993   0.58001343 
   27390   -1.7009087    1.2605131   0.70894375   0.58105601 
   27400   -1.6746284    1.2774573   0.74341837   0.58216349 
   27410   -1.6419414    1.3014016   0.77522267    0.5833296 
   27420   -1.6001179    1.3322284   0.80822596   0.58454834 
   27430   -1.5499985    1.3692938   0.84277456   0.58581355 
   27440   -1.4964088    1.4114677   0.87443939   0.58711878 
   27450   -1.4408836    1.4566412   0.90380847   0.58845785 
   27460   -1.3865413    1.5011121   0.93350766   0.58982494 
   27470   -1.3403134    1.5398583   0.96629481   0.59121419 
   27480   -1.3035016    1.5684108    1.0118368   0.59261886 
   27490   -1.2760823    1.5854922    1.0738093   0.59402977 
   27500   -1.2575571    1.5941954    1.1441743   0.59543458 
   27510   -1.2437964    1.5998455    1.2123694   0.59681911 
   27520   -1.2347041    1.6058644    1.2685654   0.59816959 
   27530   -1.2305465    1.6118492    1.3141126   0.59947433 
   27540   -1.2297092     1.614933    1.3601971   0.60072348 
   27550    -1.230905    1.6122149    1.4174469   0.60190712 
   27560   -1.2357179    1.6027448     1.486466   0.60301329 
   27570    -1.243452    1.5879257    1.5626509   0.60402762 
   27580   -1.2531022    1.5703803    1.6375323   0.60493436 
   27590   -1.2641839    1.5525172    1.7026359   0.60571801 
   27600   -1.2774207    1.5358643    1.7510567   0.60636496 
   27610   -1.2922717    1.5213647    1.7796925   0.60686477 
   27620   -1.3083653    1.5098789    1.7859073   0.60721097 
   27630   -1.3242122     1.502285    1.7688483   0.60740151 
   27640   -1.3415189    1.4990657    1.7255555    0.6074391 
   27650   -1.3597113     1.499839    1.6590959   0.60733155 
   27660   -1.3780133    1.5030728    1.5769873   0.60709128 
   27670   -1.3980183    1.5059869    1.4880577    0.6067339 
   27680   -1.4184062    1.5054244    1.4059492   0.60627632 
   27690    -1.439446    1.4994309    1.3381624   0.60573433 
   27700   -1.4607458    1.4886576    1.2842119   0.60512114 
   27710   -1.4820719    1.4757266    1.2366844   0.60444737 
   27720   -1.5022477    1.4629031    1.1901768   0.60372229 
   27730   -1.5227222    1.4509308    1.1408889   0.60295502 
   27740   -1.5411953    1.4402663    1.0904645   0.60215516 
   27750   -1.5592037    1.4322718      1.03315   0.60133283 
   27760   -1.5749765    1.4285776   0.96641135   0.60049939 
   27770   -1.5884177    1.4297324   0.88949421   0.59966801 
   27780   -1.6012443    1.4343704   0.80583021   0.59885393 
   27790   -1.6114794    1.4397115   0.72798157   0.59807358 
   27800   -1.6218739     1.442814   0.66334255   0.59734243 
   27810    -1.630824    1.4416935   0.62113377   0.59667321 
   27820   -1.6383047    1.4358332   0.60367461   0.59607443 
   27830   -1.6440133    1.4260162   0.60902537   0.59554987 
   27840   -1.6474908    1.4139668   0.63207206   0.59509875 
   27850   -1.6495812    1.4019592   0.66424144     0.594717 
   27860   -1.6468463    1.3923849    0.7017168   0.59439851 
   27870   -1.6409916     1.387262    0.7359424   0.59413632 
   27880   -1.6320831     1.387909   0.76285623   0.59392398 
   27890   -1.6176764    1.3948241    0.7843275   0.59375631 
   27900    -1.597432    1.4077898   0.80236001   0.59362923 
   27910   -1.5716686    1.4259707   0.82020807   0.59353937 
   27920   -1.5397149    1.4480864   0.84349463    0.5934833 
   27930   -1.5010498    1.4724886   0.87809437   0.59345648 
   27940   -1.4565308    1.4972714   0.92795866   0.59345208 
   27950   -1.4078985    1.5203705   0.99511754   0.59346028 
   27960    -1.358615    1.5398972    1.0778455   0.59346783 
   27970   -1.3106961    1.5546452    1.1732647    0.5934583 
   27980   -1.2654307    1.5647381    1.2751324   0.59341264 
   27990   -1.2254337     1.571976    1.3708337   0.59331052 
   28000   -1.1918617     1.579401    1.4463881   0.59313268 
   28010   -1.1631555    1.5898821    1.4926207   0.59286359 
   28020    -1.139205    1.6043945    1.5056205   0.59249342 
   28030   -1.1207687     1.621415    1.4892729   0.59201878 
   28040   -1.1085077    1.6377652    1.4533995   0.59144203 
   28050   -1.1007429     1.650286     1.410828   0.59076934 
   28060   -1.0989947    1.6571811    1.3664754   0.59000847 
   28070   -1.1033595    1.6582232    1.3219082   0.58916767 
   28080   -1.1124964    1.6542273      1.27723   0.58825532 
   28090   -1.1267889    1.6460279    1.2304793   0.58727996 
   28100   -1.1444368    1.6339342    1.1840137   0.58625051 
   28110   -1.1658942    1.6179103    1.1386914   0.58517596 
   28120   -1.1907126    1.5984628    1.0947433    0.5840651 
   28130   -1.2170373    1.5776112    1.0494092   0.58292651 
   28140    -1.245204    1.5586291   0.99363624   0.58176936 
   28150   -1.2736722    1.5439401   0.92345098   0.58060485 
   28160   -1.3027347    1.5329376   0.84240177   0.57944691 
   28170    -1.330312    1.5224296   0.76487617   0.57831146 
   28180   -1.3573519    1.5091339   0.70197134   0.57721389 
   28190   -1.3838417    1.4912725   0.66088656   0.57616683 
   28200   -1.4069786     1.468624   0.64673442   0.57517855 
   28210   -1.4278482    1.4420782   0.65613916   0.57425228 
   28220   -1.4454895    1.4135005   0.68448731   0.57338654 
   28230   -1.4589084    1.3856173   0.72409247   0.57257612 
   28240    -1.468304    1.3613179   0.76514406    0.5718136 
   28250   -1.4737683    1.3424617    0.8011243   0.57109124 
   28260   -1.4733261    1.3290078   0.83369196   0.57040204 
   28270   -1.4698214    1.3195181   0.86340013   0.56973972 
   28280   -1.4616235     1.312474   0.89610104   0.56909831 
   28290   -1.4507078    1.3074202   0.93018562   0.56847148 
   28300   -1.4352242    1.3052374    0.9641552    0.5678525 
   28310   -1.4183818    1.3075587   0.98834704    0.5672348 
   28320   -1.3985645    1.3157982   0.99921023   0.56661354 
   28330    -1.377173    1.3302764   0.99314502   0.56598655 
   28340   -1.3557198     1.350021   0.97062408    0.5653549 
   28350   -1.3332517    1.3731048   0.93809453   0.56472288 
   28360   -1.3128767    1.3972793   0.89878811   0.56409685 
   28370   -1.2935522    1.4204286   0.86065979   0.56348443 
   28380   -1.2752773    1.4406376   0.83021774   0.56289314 
   28390   -1.2599117     1.456085   0.81169702   0.56232911 
   28400   -1.2445831    1.4651081   0.81404256   0.56179599 
   28410   -1.2311247    1.4665417   0.83902869   0.56129349 
   28420   -1.2193001    1.4604041   0.88666977   0.56081682 
   28430   -1.2074686    1.4487269   0.95203607   0.56035669 
   28440   -1.1951043    1.4358991    1.0214037   0.55990047 
   28450   -1.1826032    1.4278406    1.0754981   0.55943465 
   28460   -1.1696865    1.4290114    1.1006043   0.55894855 
   28470   -1.1556237    1.4394454    1.0973427   0.55843693 
   28480   -1.1391502    1.4552938    1.0789878   0.55789988 
   28490   -1.1223452    1.4721133    1.0571047   0.55734059 
   28500   -1.1053127    1.4869107    1.0410557   0.55676306 
   28510   -1.0881588    1.4978761    1.0363965   0.55617017 
   28520   -1.0714569    1.5034377    1.0470456   0.55556255 
   28530   -1.0550056    1.5022066    1.0768835   0.55493779 
   28540   -1.0376623    1.4937715    1.1274671   0.55428972 
   28550   -1.0213554    1.4797602     1.190537   0.55360821 
   28560   -1.0057454    1.4642362    1.2528119   0.55288057 
   28570  -0.98881183    1.4532058     1.297161   0.55209419 
   28580  -0.97192423    1.4531107     1.301973   0.55124013 
   28590  -0.95265184    1.4685297    1.2562074   0.55031693 
   28600  -0.93185707    1.5000722    1.1578972   0.54933315 
   28610    -0.910086    1.5439095    1.0192362    0.5483076 
   28620  -0.88831948    1.5933913   0.86041291   0.54726726 
   28630  -0.86816878    1.6415634   0.70155451   0.54624323 
   28640  -0.85176489     1.682826    0.5576722   0.54526707 
   28650  -0.84004703    1.7134958   0.43901556   0.54436761 
   28660  -0.83565879    1.7315095   0.34874452   0.54356906 
   28670  -0.83773063    1.7361745   0.28956538   0.54289012 
   28680  -0.84849478    1.7279869   0.25714392   0.54234374 
   28690  -0.86780969    1.7086322   0.24619642   0.54193777 
   28700   -0.8951517    1.6807921   0.24899077   0.54167594 
   28710  -0.93015254    1.6475778   0.25661816   0.54155937 
   28720  -0.97254971    1.6117348   0.26169053    0.5415884 
   28730   -1.0195704    1.5750777   0.26301157   0.54176388 
   28740   -1.0712908    1.5387243    0.2594029   0.54208757 
   28750    -1.122987    1.5036675    0.2562034   0.54256222 
   28760   -1.1729388    1.4711375   0.25528165   0.54319065 
   28770   -1.2167456    1.4425271   0.26067533   0.54397533 
   28780   -1.2538411    1.4189467   0.27204424   0.54491776 
   28790   -1.2833843    1.4009221   0.28980506   0.54601829 
   28800   -1.3055795    1.3882353   0.31430946   0.54727599 
   28810   -1.3203194    1.3799943    0.3475389   0.54868855 
   28820    -1.328277    1.3748227   0.39171473   0.55025185 
   28830   -1.3310342    1.3711833    0.4484818    0.5519594 
   28840   -1.3294856     1.367748   0.51967749   0.55380198 
   28850   -1.3233716    1.3638614   0.60651944   0.55576719 
   28860   -1.3139162     1.360097   0.70489885    0.5578392 
   28870   -1.3015714    1.3588535   0.80600461   0.55999946 
   28880   -1.2858727     1.364071   0.89732013   0.56222847 
   28890   -1.2671201    1.3789698   0.96758853   0.56450814 
   28900   -1.2452705     1.403104    1.0171991   0.56682391 
   28910   -1.2231634    1.4320881    1.0555936     0.569165 
   28920   -1.1985924    1.4604346    1.1016281    0.5715223 
   28930   -1.1725813    1.4842387    1.1658355   0.57388517 
   28940   -1.1473432     1.501847    1.2501983   0.57623938 
   28950   -1.1214319    1.5135014    1.3546743   0.57856644 
   28960   -1.0972049    1.5207915    1.4701685   0.58084398 
   28970   -1.0733098    1.5264029    1.5879492    0.5830471 
   28980     -1.04986    1.5337085    1.6951457   0.58515042 
   28990   -1.0286594    1.5451587    1.7797707   0.58713062 
   29000   -1.0090368     1.560245    1.8421636   0.58896867 
   29010  -0.99131867    1.5760024    1.8895312   0.59064996 
   29020  -0.97584103    1.5897904    1.9283831   0.59216314 
   29030  -0.96485382    1.6008426    1.9572897   0.59349889 
   29040  -0.95873395    1.6094683    1.9737025   0.59464991 
   29050  -0.95520179    1.6158173    1.9788806   0.59561148 
   29060   -0.9571744    1.6195958    1.9694909    0.5963814 
   29070  -0.96414708    1.6207397    1.9456887   0.59696048 
   29080  -0.97729768    1.6200778    1.9030607   0.59735259 
   29090  -0.99638494    1.6189498    1.8375604   0.59756549 
   29100    -1.022769    1.6179561     1.746003   0.59761156 
   29110   -1.0547881    1.6159786     1.634848   0.59750831 
   29120   -1.0953984    1.6104615    1.5103233   0.59727735 
   29130   -1.1416561    1.5988422    1.3865112   0.59694272 
   29140    -1.194028    1.5801175    1.2694592   0.59652863 
   29150   -1.2491698    1.5554897    1.1636812     0.596058 
   29160   -1.3047282    1.5279124    1.0676628    0.5955517 
   29170   -1.3585514    1.5008214   0.97810455   0.59502876 
   29180   -1.4056856    1.4768912   0.89657333   0.59450685 
   29190   -1.4448929     1.457367   0.82328818   0.59400216 
   29200   -1.4763681    1.4420858   0.75969202   0.59352929 
   29210   -1.5002832    1.4299094   0.70908128   0.59310086 
   29220   -1.5180629    1.4193808   0.67357542   0.59272698 
   29230   -1.5311129    1.4092832   0.65421585   0.59241486 
   29240   -1.5378419     1.399058   0.65331533   0.59216846 
   29250   -1.5425762    1.3891487   0.66304773   0.59198846 
   29260    -1.542892    1.3810138   0.68030649   0.59187319 
   29270   -1.5386848    1.3768626   0.69699677   0.59181962 
   29280   -1.5332937    1.3788842    0.7013327   0.59182501 
   29290   -1.5245655    1.3881031   0.69200538   0.59188876 
   29300   -1.5134092    1.4036862   0.67040303   0.59201307 
   29310   -1.5000384    1.4231548   0.64424949    0.5922025 
   29320   -1.4857919    1.4434477   0.62186417   0.59246256 
   29330   -1.4706076    1.4621552   0.61110561   0.59279804 
   29340   -1.4532272    1.4781522   0.61696917   0.59321157 
   29350   -1.4353299    1.4915878   0.63675313   0.59370268 
   29360   -1.4183998     1.503411   0.66519612   0.59426813 
   29370   -1.4015253    1.5148431   0.69887504   0.59490295 
   29380   -1.3848271    1.5267607   0.73423385   0.59560117 
   29390   -1.3681857    1.5390581   0.77105678   0.59635636 
   29400   -1.3522904    1.5506364   0.81139008    0.5971617 
   29410   -1.3369101      1.55999   0.85972872   0.59800959 
   29420    -1.324247    1.5659193   0.91669751   0.59889088 
   29430    -1.312762    1.5679323   0.98505702   0.59979451 
   29440   -1.3029046    1.5663655    1.0624672   0.60070718 
   29450   -1.2943931    1.5622732      1.14508   0.60161362 
   29460   -1.2871671    1.5570412    1.2276688   0.60249747 
   29470   -1.2827398    1.5517613    1.3039841   0.60334222 
   29480   -1.2788791    1.5467954    1.3746641   0.60413225 
   29490   -1.2765292    1.5417878    1.4389237   0.60485299 
   29500   -1.2752353    1.5361422    1.4984704   0.60549103 
   29510   -1.2761328    1.5296295    1.5518801    0.6060338 
   29520   -1.2794704    1.5226392    1.5966974   0.60646986 
   29530   -1.2839598    1.5159478    1.6310948   0.60678942 
   29540   -1.2904477    1.5100887    1.6514957    0.6069847 
   29550   -1.2985203    1.5049446    1.6582155   0.60705054 
   29560   -1.3098672    1.4996961    1.6515725   0.60698457 
   29570   -1.3233932    1.4932075    1.6367031   0.60678693 
   29580   -1.3401056    1.4843555    1.6165458   0.60645949 
   29590    -1.360161    1.4721622    1.5948758   0.60600519 
   29600   -1.3815012    1.4559654      1.57739   0.60542723 
   29610   -1.4053152    1.4356704    1.5640673   0.60472811 
   29620   -1.4300776    1.4121596    1.5549906   0.60390958 
   29630   -1.4533451     1.387352    1.5478723   0.60297266 
   29640   -1.4766998    1.3637431    1.5336532   0.60191815 
   29650   -1.4981497    1.3435486     1.508456   0.60074819 
   29660   -1.5163608    1.3280735    1.4706375    0.5994672 
   29670   -1.5314444    1.3176822    1.4200302   0.59808221 
   29680   -1.5415258    1.3121758    1.3607399   0.59660268 
   29690   -1.5468974    1.3112799    1.2946816    0.5950401 
   29700   -1.5484165    1.3148225    1.2229227   0.59340739 
   29710   -1.5433246     1.322593    1.1509182   0.59171861 
   29720    -1.534021    1.3342541    1.0783805   0.58998826 
   29730   -1.5176749    1.3493407    1.0113958   0.58823075 
   29740   -1.4959676    1.3673225   0.95059754   0.58645966 
   29750   -1.4675045    1.3875732   0.90002686   0.58468727 
   29760   -1.4341736    1.4091733   0.86005817   0.58292396 
   29770   -1.3984433    1.4308333   0.83077185   0.58117808 
   29780   -1.3589877    1.4510559    0.8165979   0.57945562 
   29790   -1.3201519    1.4684642   0.81446171   0.57775993 
   29800   -1.2821424    1.4822566   0.82414515   0.57609174 
   29810   -1.2458644    1.4924392   0.84236584   0.57444947 
   29820   -1.2133184    1.4996625   0.86305286      0.57283 
   29830   -1.1848624    1.5048569   0.88171996   0.57122958 
   29840   -1.1591933     1.508942   0.89634996   0.56964479 
   29850   -1.1368729    1.5127232   0.90355487   0.56807304 
   29860   -1.1174375    1.5168747   0.90185071   0.56651321 
   29870    -1.100797    1.5217855   0.89047517   0.56496587 
   29880   -1.0869006    1.5273854   0.87012769    0.5634335 
   29890   -1.0749774    1.5334114   0.84305798    0.5619203 
   29900   -1.0643226    1.5397913   0.81090569   0.56043186 
   29910   -1.0557296    1.5468042    0.7726152   0.55897484 
   29920   -1.0493981    1.5547578   0.72777041   0.55755704 
   29930   -1.0441682    1.5634361   0.67902848   0.55618745 
   29940   -1.0415729    1.5718486   0.62834668   0.55487586 
   29950   -1.0404594    1.5783887   0.58241654   0.55363235 
   29960   -1.0417788    1.5812661   0.54607871   0.55246612 
   29970   -1.0452426    1.5788722   0.52482376   0.55138437 
   29980   -1.0516123    1.5701093   0.52124133   0.55039146 
   29990   -1.0597705    1.5547305   0.53721488    0.5494882 
   30000   -1.0694573    1.5337277   0.56983531   0.54867161 
Loop time of 5.27687 on 8 procs for 30000 steps with 125 atoms

Performance: 245600.182 tau/day, 5685.189 timesteps/s
94.2% CPU use with 1 MPI tasks x 8 OpenMP threads

MPI task timing breakdown:
Section |  min time  |  avg time  |  max time  |%varavg| %total
---------------------------------------------------------------
Pair    | 1.8966     | 1.8966     | 1.8966     |   0.0 | 35.94
Neigh   | 0.0049961  | 0.0049961  | 0.0049961  |   0.0 |  0.09
Comm    | 0.11012    | 0.11012    | 0.11012    |   0.0 |  2.09
Output  | 0.074577   | 0.074577   | 0.074577   |   0.0 |  1.41
Modify  | 3.1757     | 3.1757     | 3.1757     |   0.0 | 60.18
Other   |            | 0.01494    |            |       |  0.28

Nlocal:        125.000 ave         125 max         125 min
Histogram: 1 0 0 0 0 0 0 0 0 0
Nghost:        1914.00 ave        1914 max        1914 min
Histogram: 1 0 0 0 0 0 0 0 0 0
Neighs:        14340.0 ave       14340 max       14340 min
Histogram: 1 0 0 0 0 0 0 0 0 0

Total # of neighbors = 14340
Ave neighs/atom = 114.72000
Neighbor list builds = 59
Dangerous builds = 0

variable avedens equal f_aves[1]
variable avetemp equal f_aves[2]
variable avepress equal f_aves[3]
variable errdens equal sqrt(f_aves[4]-f_aves[1]*f_aves[1])
variable errtemp equal sqrt(f_aves[5]-f_aves[2]*f_aves[2])
variable errpress equal sqrt(f_aves[6]-f_aves[3]*f_aves[3])

print "Averages"
Averages
print "--------"
--------
print "Density: ${avedens}"
Density: 0.577068272970448
print "Stderr: ${errdens}"
Stderr: 0.0275906414613685
print "Temperature: ${avetemp}"
Temperature: 1.49266491851239
print "Stderr: ${errtemp}"
Stderr: 0.110661356805535
print "Pressure: ${avepress}"
Pressure: 1.00202897293525
print "Stderr: ${errpress}"
Stderr: 0.353212535211656
