
### SPECIFY THE NUMBER OF PRODUCTION STEPS ###
variable Nprod equal 30000

### ASSIGN ATOMIC VELOCITIES ###
velocity all create ${T} 12345 dist gaussian rot yes mom yes
velocity all create 1.5 12345 dist gaussian rot yes mom yes

### SPECIFY ENSEMBLE ###
timestep ${timestep}
timestep 0.01
fix nve all nve

### THERMODYNAMIC OUTPUT CONTROL ###
thermo_style custom time etotal temp press
thermo 10

### RECORD TRAJECTORY ###
dump traj all custom 1000 traj.dump id x y z

### SPECIFY TIMESTEP ###
variable n_steps equal floor(50/${timestep})
variable n_steps equal floor(50/0.01)
timestep ${timestep}
timestep 0.01

### RUN SIMULATION TO MELT CRYSTAL ###
run ${n_steps}
run 5000
Last active /omp style is pair_style lj/cut/omp
Neighbor list info ...
  update every 1 steps, delay 10 steps, check yes
  max neighbors/atom: 2000, page size: 100000
  master list distance cutoff = 4.5
  ghost atom cutoff = 4.5
  binsize = 2.25, bins = 3 3 3
  1 neighbor lists, perpetual/occasional/extra = 1 0 0
  (1) pair lj/cut/omp, perpetual
      attributes: half, newton on, omp
      pair build: half/bin/atomonly/newton/omp
      stencil: half/bin/3d/newton
      bin: standard
Per MPI rank memory allocation (min/avg/max) = 10.63 | 10.63 | 10.63 Mbytes
Time TotEng Temp Press 
           0   -3.0327711          1.5   0.89516323 
         0.1   -3.0022443   0.95161902    4.0675025 
         0.2   -2.9975538    1.4597001    1.3552699 
         0.3   -2.9974772    1.2820608    2.3442967 
         0.4   -2.9990573    1.2528411    2.8086332 
         0.5    -3.000791    1.2938293    2.8109114 
         0.6   -3.0003723    1.2049904    3.0931043 
         0.7   -3.0021896    1.3200474     2.294475 
         0.8   -3.0002488    1.3296921    2.4023115 
         0.9   -2.9928663    1.3019092    2.6830518 
           1   -2.9889607     1.320243    2.7344167 
         1.1   -2.9945706    1.2179829    3.2959046 
         1.2   -2.9928831    1.2095306    3.2651961 
         1.3   -2.9930511    1.2292886    3.1859948 
         1.4   -2.9965124    1.3305612    2.3704992 
         1.5   -2.9904057    1.2600829    2.8085475 
         1.6   -2.9927373    1.2116386    3.2188091 
         1.7   -2.9943661    1.2129715    3.3208324 
         1.8   -2.9960726    1.3292048    2.5696028 
         1.9   -2.9960125    1.3033721    2.8037827 
           2   -2.9950005    1.2606888    2.9660482 
         2.1   -2.9915007    1.1742594    3.5887845 
         2.2   -2.9962477     1.243312    3.0614796 
         2.3   -3.0003605     1.263282    2.9366943 
         2.4   -2.9924935    1.1340369    3.6653817 
         2.5   -2.9931634     1.205636    3.3104739 
         2.6   -2.9931547    1.2351656    3.1030453 
         2.7    -2.994856    1.2445076    3.1311228 
         2.8   -2.9951565    1.2882662    2.8738747 
         2.9   -2.9934423    1.2882429    2.8906811 
           3    -3.000222    1.2667615    2.8982292 
         3.1    -2.998179    1.2700034    2.9112035 
         3.2   -2.9954844    1.1578856    3.6073996 
         3.3   -2.9939762    1.3013697    2.7444695 
         3.4   -2.9951021    1.2794057    3.0316688 
         3.5   -2.9979057    1.2689949    3.0651491 
         3.6   -2.9969796    1.3471797    2.4809349 
         3.7   -2.9961597    1.2540602     2.932865 
         3.8   -2.9948116    1.2848473    3.0311071 
         3.9   -2.9944624    1.3118121    2.9127848 
           4   -2.9929394    1.2686215    2.9827863 
         4.1   -2.9930551    1.2218541    3.1829888 
         4.2   -2.9965024    1.2343045    3.1613144 
         4.3     -2.99421    1.2870608     2.943111 
         4.4   -2.9965123    1.3002768    2.6629184 
         4.5    -2.998413    1.2324408    3.2756442 
         4.6   -2.9984403    1.2223478    3.0375518 
         4.7   -3.0046953    1.3046949    2.5513666 
         4.8     -2.99935    1.2115088    3.0617716 
         4.9   -2.9979609    1.2618204    3.0442249 
           5   -2.9940841     1.323225    2.5247256 
         5.1   -2.9906665    1.2260539    3.0595281 
         5.2   -2.9921469    1.2296219    3.0566475 
         5.3   -2.9966474    1.2897827     2.837022 
         5.4   -2.9975065    1.2306016    3.1591679 
         5.5   -2.9980647    1.2810433    2.7875956 
         5.6   -2.9973859    1.3091397     2.488943 
         5.7   -2.9960842    1.2447684    2.9985671 
         5.8    -2.994489    1.2685538    2.9651096 
         5.9   -2.9963704    1.2636759    2.9695812 
           6    -2.999449    1.3347282    2.7105763 
         6.1   -2.9955304    1.2631821    3.0744116 
         6.2    -2.993376    1.2082986    3.4811101 
         6.3   -2.9945102    1.2073322     3.490412 
         6.4   -2.9923435    1.2342944    3.3288778 
         6.5   -2.9913518    1.1823675      3.52701 
         6.6   -2.9907772    1.1384172    3.7144764 
         6.7   -2.9941293    1.2518969    3.1418489 
         6.8   -3.0006281    1.2568752    3.0523193 
         6.9   -2.9968505    1.3186522    2.5876791 
           7   -2.9962834    1.2363539    3.1717203 
         7.1   -2.9959795     1.276652    2.8082164 
         7.2   -2.9954589    1.2991761    2.8065665 
         7.3   -2.9957803    1.2809076    3.0273725 
         7.4   -2.9973774    1.2341836    3.2154969 
         7.5   -2.9982848    1.2481908    3.0551915 
         7.6   -2.9958335    1.2227585    2.9668175 
         7.7   -2.9974819    1.3225577     2.539882 
         7.8   -2.9904946     1.172841    3.3555505 
         7.9   -2.9921147    1.1756352    3.3321023 
           8   -2.9931272    1.2751879    2.8238352 
         8.1   -2.9975354    1.3288879     2.677677 
         8.2   -2.9961146    1.3302531    2.9105165 
         8.3   -2.9915637    1.1638268    3.7420559 
         8.4    -2.993954    1.2189104    3.3352189 
         8.5   -2.9944751     1.254965    3.0681066 
         8.6   -2.9950922    1.2676781     3.000501 
         8.7   -2.9970712    1.2477218    3.0689165 
         8.8   -2.9901894    1.1309344    3.8498943 
         8.9   -2.9959645      1.30889     2.797818 
           9   -3.0001345    1.3142352    2.6762762 
         9.1   -2.9966038    1.3374775    2.5930507 
         9.2   -2.9993647    1.3308615    2.6593717 
         9.3   -2.9927209    1.2546209    2.8979314 
         9.4   -2.9930895    1.2355534    3.0926662 
         9.5   -2.9970945    1.3367595    2.4687208 
         9.6   -2.9916227    1.2677274    2.9670997 
         9.7   -2.9941722    1.2395451    3.1401109 
         9.8   -2.9963864    1.2784292    2.8603539 
         9.9   -2.9953305    1.3463172    2.3002286 
          10   -2.9952264    1.1841993    3.4501803 
        10.1    -2.997512    1.2723496    2.7397641 
        10.2   -2.9972649     1.229262    2.7745172 
        10.3    -2.992856    1.1999362    3.2405038 
        10.4   -2.9918065    1.3009066    2.8028644 
        10.5   -2.9995277    1.3477827    2.4027238 
        10.6   -3.0001941    1.2105006    3.1333343 
        10.7   -2.9950007    1.2906392    2.6416147 
        10.8    -2.993718    1.2912251    2.6833621 
        10.9   -2.9933765     1.284339     3.137742 
          11   -2.9962646    1.2388991    3.2046726 
        11.1    -2.992979    1.2004233    3.2197294 
        11.2   -2.9970035     1.354979    2.3628621 
        11.3   -2.9941184      1.19137    3.3837039 
        11.4   -2.9920421    1.2347359    3.2105377 
        11.5   -2.9946844    1.2138958    3.2764027 
        11.6   -2.9937536    1.3422942    2.4621108 
        11.7   -2.9963237    1.2584531    3.0203079 
        11.8   -2.9966724    1.3517811    2.5771995 
        11.9   -2.9960398    1.3280556    2.6378372 
          12   -2.9975003    1.2635944    3.0007239 
        12.1   -2.9975909    1.3247617    2.6324526 
        12.2   -2.9988525    1.2989881    2.7808927 
        12.3   -3.0020847    1.3049835    2.5401562 
        12.4   -2.9991948    1.3587584    2.2351522 
        12.5   -2.9972553    1.3453605    2.4427821 
        12.6   -2.9989239    1.1982896    3.4446071 
        12.7   -2.9961157    1.2275412    3.2489998 
        12.8    -2.999453        1.285    2.8546166 
        12.9    -2.999638    1.2001793    3.3757651 
          13   -2.9979806    1.3096218     2.844354 
        13.1   -2.9951547    1.2210792    3.1769332 
        13.2    -2.991512    1.1389866    3.5357213 
        13.3   -2.9952474    1.3072551    2.5839293 
        13.4   -2.9987998    1.2620167    2.9873248 
        13.5   -2.9968528     1.299112    2.8486541 
        13.6   -2.9972968    1.3018868    2.8273094 
        13.7   -2.9949317    1.2367352    3.1170564 
        13.8   -2.9945878    1.2293729    2.9990981 
        13.9   -2.9988664    1.2668786    2.8847235 
          14   -2.9951656    1.2480067    3.1093436 
        14.1     -2.98921    1.1832301    3.4681798 
        14.2   -2.9927553     1.305537     2.843165 
        14.3   -2.9934526    1.1985004    3.6883189 
        14.4   -2.9944277    1.2359745    3.2769162 
        14.5   -2.9910763    1.3046165    2.7277914 
        14.6   -2.9959146    1.2698328    2.8108346 
        14.7   -2.9970323    1.2862766    2.8872866 
        14.8   -2.9947901    1.3215645    2.5540158 
        14.9   -2.9984716    1.2765313    2.7671167 
          15   -2.9969373    1.2804595    2.6856137 
        15.1   -2.9999733    1.2524963    2.9790442 
        15.2   -2.9957139     1.260887    3.0194563 
        15.3   -2.9973166    1.3043441    2.4775143 
        15.4   -2.9964048    1.2386045    3.0207977 
        15.5   -2.9985359    1.2734779     2.800296 
        15.6   -2.9989577    1.3238848     2.652331 
        15.7   -2.9920156    1.2257185     3.269309 
        15.8   -2.9917652     1.240404     2.993965 
        15.9   -2.9941265    1.2125363    3.0967162 
          16   -2.9948672    1.2625796    2.8776857 
        16.1   -2.9976172    1.2102057    3.2705848 
        16.2   -2.9967476    1.2457362    3.1656043 
        16.3   -2.9928536    1.2196767    3.3287638 
        16.4   -2.9961688    1.2863549    2.8206774 
        16.5   -2.9979404    1.3274052    2.7873488 
        16.6   -2.9973315    1.2462526    3.2348276 
        16.7     -2.99089     1.262426    3.0931505 
        16.8   -2.9941631    1.2712232    2.9311757 
        16.9   -2.9928169    1.2514304    3.0427029 
          17   -2.9940923    1.2145082    3.3324333 
        17.1     -2.99353    1.1903044    3.4425555 
        17.2   -2.9989023    1.2773566    2.9417625 
        17.3   -2.9961926    1.2372107    3.1009136 
        17.4   -2.9943913    1.2174305    3.2804316 
        17.5   -2.9943288    1.2959925    2.9066686 
        17.6   -2.9931234     1.313136     2.655338 
        17.7   -2.9886039    1.1837758    3.5645511 
        17.8   -2.9948764    1.2399345    3.2128086 
        17.9   -2.9972201    1.2191345    3.4958692 
          18   -2.9937126     1.323897    2.8255585 
        18.1   -2.9944339    1.2904754    2.9549111 
        18.2   -2.9936265    1.2248566    3.2232686 
        18.3   -2.9923131    1.1938929    3.4061762 
        18.4   -2.9953394    1.2744081    2.9972437 
        18.5   -2.9957955    1.3449497    2.5500754 
        18.6   -2.9954438    1.2228977    3.1702561 
        18.7   -2.9969237    1.2523289    3.0049855 
        18.8   -2.9967869    1.2778211    2.8224627 
        18.9   -2.9951802    1.1762846    3.4719529 
          19   -2.9962013    1.2466626    3.1501131 
        19.1   -2.9972632    1.3165399    2.7289309 
        19.2   -2.9944677    1.1966636    3.3684096 
        19.3   -2.9947046    1.2358349    3.0729563 
        19.4   -2.9932376     1.252075    2.9503145 
        19.5   -2.9921047    1.2119021    3.0453828 
        19.6   -2.9917161    1.2488979    2.9768596 
        19.7   -2.9922631    1.2840381    2.8548536 
        19.8   -2.9900504    1.2545172    3.0509362 
        19.9   -2.9914057    1.2341292    3.2327282 
          20   -2.9905881    1.3216394     2.632209 
        20.1   -2.9971282    1.2653077    2.8511781 
        20.2   -2.9962606    1.2957673    2.7622627 
        20.3    -2.998687    1.1980065    3.1337488 
        20.4   -2.9964784    1.2852688    2.7572329 
        20.5   -2.9973199    1.2693849    3.0883976 
        20.6   -2.9987734    1.3314987    2.5264397 
        20.7   -2.9980607    1.2139958    3.0946755 
        20.8   -2.9977488    1.3584395    2.2287976 
        20.9   -2.9955809    1.2697663    2.8898076 
          21   -2.9932563    1.2377708    3.0003194 
        21.1   -2.9954111    1.1820797    3.3823203 
        21.2   -2.9932253    1.2164909    3.2731844 
        21.3   -2.9957346    1.2308874     3.215431 
        21.4   -2.9941124    1.3549337    2.4770791 
        21.5   -2.9956627    1.3642389    2.3624378 
        21.6   -2.9895922    1.1610578     3.599786 
        21.7   -2.9947517    1.2734465    2.8411074 
        21.8   -2.9959784    1.1529978    3.4691085 
        21.9   -2.9923458    1.1739082    3.4235913 
          22   -2.9926837    1.1899554    3.7141538 
        22.1    -2.995824    1.2816122    2.9852916 
        22.2   -2.9964474    1.2584847    3.0355482 
        22.3   -2.9935116    1.2327101    3.1669933 
        22.4   -2.9912812    1.2734217    2.9756852 
        22.5   -2.9941862     1.324398    2.6459902 
        22.6   -2.9900537    1.2438701    3.2162114 
        22.7   -2.9931433    1.2707894    3.1758015 
        22.8   -2.9921113    1.2815787    2.9564868 
        22.9   -2.9928105    1.2788077    2.9302049 
          23   -2.9990419    1.3368308    2.4653961 
        23.1   -2.9950235    1.3679765    2.3723982 
        23.2   -2.9924472    1.3024004    2.7853715 
        23.3   -2.9985693    1.3558565    2.2222323 
        23.4    -2.992251    1.2350737    3.0297503 
        23.5    -2.993531    1.2723947    2.9423871 
        23.6   -2.9954221    1.2151272    3.3392193 
        23.7   -2.9983543    1.2609674    3.0192875 
        23.8   -2.9932049    1.2778302    2.9719384 
        23.9   -2.9982829    1.3081226    2.7983194 
          24   -2.9971982    1.4185728    2.3161357 
        24.1   -2.9950298    1.3239226     2.690128 
        24.2   -2.9959024    1.3584319    2.4289576 
        24.3   -2.9927633    1.2778828    2.7066478 
        24.4    -2.994335    1.2856636    2.7447977 
        24.5   -2.9957518    1.3051587    2.8098316 
        24.6   -2.9894379    1.1954085    3.5085916 
        24.7   -2.9943064    1.2742328    2.9117775 
        24.8   -2.9966731    1.1735871     3.464419 
        24.9   -2.9916547    1.2669802    2.7656937 
          25   -2.9892455    1.2219683    3.0351974 
        25.1   -2.9925802    1.3130365    2.6708433 
        25.2   -2.9919639    1.2028183    3.2995909 
        25.3   -2.9929272    1.2617334    2.8354613 
        25.4     -2.99743    1.2910757    2.9058328 
        25.5   -2.9938934    1.2828235     2.839507 
        25.6   -2.9950227    1.2678758    2.7806166 
        25.7    -2.996674    1.2767531    2.8846584 
        25.8   -2.9960518    1.3725499    2.3836318 
        25.9   -2.9948111    1.1871064    3.4764798 
          26   -2.9955724    1.1891923    3.4922555 
        26.1   -3.0014124     1.253668    3.1302465 
        26.2   -2.9959038    1.2363237    3.2667773 
        26.3   -2.9934606    1.3269796    2.6238439 
        26.4   -3.0024422    1.3340961    2.4539874 
        26.5   -2.9958892    1.2321113    2.9427854 
        26.6   -2.9974803    1.2243375     3.156884 
        26.7   -2.9938111    1.2628124    2.9025964 
        26.8   -2.9915731    1.1862267    3.4137695 
        26.9   -2.9955032    1.1948497    3.3156756 
          27   -2.9933941     1.202457    3.1439366 
        27.1   -2.9904609    1.1974674    3.4329724 
        27.2   -2.9973044     1.288339    2.8496746 
        27.3   -2.9956383    1.2521702    3.0465672 
        27.4   -2.9956851    1.2625783    2.9112207 
        27.5   -2.9925029    1.3094229    2.5369444 
        27.6    -2.992576     1.318267    2.6576781 
        27.7   -2.9953768    1.2762196    2.6945866 
        27.8    -2.990882    1.2099984    3.1313928 
        27.9   -2.9902363    1.3552669    2.4784064 
          28    -2.997076    1.2581144     3.095532 
        28.1   -2.9954537    1.2464345    2.9489944 
        28.2   -2.9924197    1.2055264    3.0673997 
        28.3   -2.9945944    1.2176102    3.3524166 
        28.4   -2.9923172    1.2825768     3.019923 
        28.5   -2.9933246    1.4100378    2.1394456 
        28.6   -2.9951802    1.2200577    3.2395443 
        28.7   -2.9923041    1.1978769     3.414682 
        28.8   -2.9912625    1.1893511    3.3223031 
        28.9   -2.9936625    1.3461213    2.3689319 
          29   -2.9985059    1.2910455    2.6674517 
        29.1   -2.9932496    1.2758548    2.8961266 
        29.2   -2.9930475    1.2543591    3.2608605 
        29.3   -2.9962053    1.1634391    3.4929337 
        29.4   -2.9937111    1.2424083    3.2262055 
        29.5   -2.9875692    1.2839459    2.9068334 
        29.6     -2.99501    1.2999579    2.8143294 
        29.7   -2.9936773    1.2541883    3.0038586 
        29.8   -2.9954088    1.2972451    2.7022788 
        29.9   -2.9920392    1.2659169    2.9664484 
          30   -2.9934099    1.2443871    3.2310162 
        30.1   -2.9917599    1.4024863    2.2429459 
        30.2   -2.9962049    1.2738156      2.91279 
        30.3     -2.99662    1.2840968    2.7135776 
        30.4    -2.995331    1.2678308    2.9960412 
        30.5   -2.9981163    1.3024944    2.7518276 
        30.6   -2.9940007    1.3027362    2.8654117 
        30.7   -2.9958864    1.2899685    2.7612418 
        30.8   -2.9977829    1.3159034     2.543468 
        30.9   -2.9963502    1.2601732    2.9388671 
          31   -2.9908525    1.2766879      2.74851 
        31.1   -2.9916293    1.1884802    3.4319095 
        31.2   -2.9929923    1.2055239    3.2465934 
        31.3   -2.9920951    1.1944882    3.3065649 
        31.4   -2.9903685    1.2538259    2.9861036 
        31.5   -2.9946695    1.2387004    3.0203953 
        31.6   -2.9936196    1.2799367    2.8214998 
        31.7   -2.9937377    1.2889274    2.7974212 
        31.8    -2.997688    1.3641152    2.2941437 
        31.9    -2.995484    1.2959616     2.606795 
          32   -2.9952427    1.2467138    2.9748146 
        32.1   -2.9968352    1.3782364    2.0961172 
        32.2   -2.9925522    1.1532811    3.3966529 
        32.3   -2.9980211    1.2389659    2.9596112 
        32.4   -2.9947266    1.3153279    2.6124346 
        32.5   -2.9956037      1.23067    3.1915777 
        32.6   -2.9979215    1.3174654    2.5443581 
        32.7   -2.9937724    1.2439773    3.0621243 
        32.8   -2.9962439    1.2967292    2.7216756 
        32.9   -2.9955828    1.3054652    2.8073007 
          33   -2.9984575     1.220946    3.1771712 
        33.1   -2.9925607    1.2480981    3.2406928 
        33.2   -2.9952109    1.2870727    3.0996836 
        33.3    -2.994292    1.2852202    2.9465601 
        33.4   -2.9962283     1.287071    2.7535399 
        33.5   -2.9937835    1.2126984    3.0983097 
        33.6   -2.9933927    1.2329049    3.1362009 
        33.7   -2.9988802    1.2857036    2.6447123 
        33.8   -2.9985167     1.345761     2.171863 
        33.9   -2.9914209    1.2185966     3.174833 
          34   -2.9972835    1.3063072    2.7777721 
        34.1   -2.9962079    1.2422918    3.0802128 
        34.2   -2.9894609    1.2967498    2.7106566 
        34.3   -2.9911631    1.3123208    2.7324945 
        34.4   -3.0003854    1.2412939    3.2854443 
        34.5   -2.9985566    1.3666468    2.4753634 
        34.6   -2.9987963    1.2416186     3.183902 
        34.7   -2.9971238    1.2856646    3.0508096 
        34.8   -2.9947691    1.3392051    2.7714396 
        34.9   -2.9978646    1.2849133    3.0230325 
          35   -2.9961606    1.2762359    2.9250567 
        35.1    -2.998296    1.2980899    2.8404098 
        35.2   -2.9956865    1.2439495    3.1338855 
        35.3    -2.993495    1.2811086    2.6770184 
        35.4   -2.9947818    1.2869826     2.571748 
        35.5   -2.9944154    1.2313884    3.0566939 
        35.6   -2.9911812    1.3032152    2.6108854 
        35.7   -2.9916657    1.1200602     3.715635 
        35.8   -2.9935256    1.2383502    3.2436329 
        35.9   -2.9960941    1.1898558    3.4846408 
          36   -2.9942031    1.1547874    3.6316196 
        36.1   -2.9949164    1.3146128    2.7429236 
        36.2   -2.9921694    1.1873676    3.3531022 
        36.3   -2.9927684     1.282386    2.6958031 
        36.4   -2.9949397    1.2884392    2.7833597 
        36.5   -2.9930552     1.284891    2.9029517 
        36.6   -3.0017769    1.2546313    3.0680993 
        36.7   -2.9962414    1.2674111    2.8111193 
        36.8   -2.9961338    1.2083075    3.1240654 
        36.9   -2.9982266    1.2329628     3.205004 
          37   -3.0006202    1.1691503     3.588174 
        37.1   -3.0002447    1.2691923    2.7975407 
        37.2   -2.9949085    1.3051565    2.6487066 
        37.3   -2.9964267    1.2816583    2.9141508 
        37.4   -2.9941154    1.1580174    3.4367406 
        37.5   -2.9957596    1.3654789     2.381245 
        37.6   -2.9999113    1.3454154    2.8219007 
        37.7   -2.9964815    1.2881028    3.0235372 
        37.8    -2.998762     1.319289    2.7766419 
        37.9   -2.9967442    1.2228672    3.1499109 
          38   -2.9967226    1.2484946    2.9393883 
        38.1    -2.995076    1.1924731    3.2241075 
        38.2   -2.9963839    1.3150666    2.6525259 
        38.3   -2.9953153    1.2669097    3.1148612 
        38.4    -2.989179    1.2128915    3.3406288 
        38.5   -2.9932106    1.2210837    3.1202872 
        38.6   -2.9966369    1.3113558    2.5418918 
        38.7    -2.998457    1.2391813    2.9655321 
        38.8   -2.9973159    1.2818793    2.7119933 
        38.9   -2.9919503    1.2033064     3.362622 
          39   -2.9938793    1.2333776    2.9296348 
        39.1   -2.9966148    1.2961779     2.689744 
        39.2   -2.9955991    1.1462844    3.5293344 
        39.3   -2.9980198    1.2736305    2.7828297 
        39.4   -2.9960826    1.2001247    3.3269035 
        39.5   -2.9970342    1.2166535     3.286786 
        39.6   -2.9921108    1.2074147    3.3940801 
        39.7   -2.9968226    1.2707046    2.8317356 
        39.8   -2.9944197    1.2931456    2.8450441 
        39.9   -2.9934567    1.2176797    3.3022938 
          40   -2.9992188    1.2286994    3.1069967 
        40.1    -2.998901    1.2831985    2.6426099 
        40.2   -2.9943732    1.2855892    2.7564611 
        40.3   -2.9962416       1.2706    2.8358426 
        40.4   -2.9922268    1.1512838    3.6544848 
        40.5   -2.9947545    1.2417456    3.3027388 
        40.6    -2.993029    1.2178058    3.2079206 
        40.7   -2.9932934    1.1567838    3.4906075 
        40.8   -2.9936237    1.2553434    2.9235145 
        40.9   -2.9985476    1.3058573    2.5547257 
          41    -2.990914    1.2109625    3.1489504 
        41.1   -2.9995655    1.3331368     2.406193 
        41.2   -2.9933181    1.2694053    2.9110554 
        41.3   -2.9950677    1.2311843    3.2522495 
        41.4    -2.995287     1.358978    2.2894867 
        41.5   -2.9969237    1.2637887    2.9523614 
        41.6   -2.9925626    1.1895162    3.5249382 
        41.7   -2.9965835    1.1888381    3.4624479 
        41.8   -2.9947029    1.2504436    3.0178869 
        41.9   -2.9930369    1.1969899    3.3170081 
          42    -2.996104    1.2846575    2.8776122 
        42.1   -2.9906221    1.1992775    3.2218551 
        42.2   -2.9942949    1.3206496    2.4489632 
        42.3   -2.9942079     1.265613    2.9279302 
        42.4   -2.9962958    1.2968292    2.8987927 
        42.5   -2.9918839    1.2763427    2.9784459 
        42.6   -2.9943194    1.2727793    2.8708156 
        42.7   -2.9973719    1.3007367    2.7311908 
        42.8   -2.9990805    1.3080367    2.7354541 
        42.9   -2.9988594    1.3029793    2.5976427 
          43   -2.9921877    1.2210018    3.4184796 
        43.1   -2.9912098    1.2122065    3.3625569 
        43.2   -2.9990082     1.232024    3.2181297 
        43.3   -2.9963404    1.2610241    3.1706045 
        43.4   -2.9951992    1.2750275    2.9202499 
        43.5   -2.9965059    1.2289692    3.3032112 
        43.6   -2.9965984     1.321398    2.8191677 
        43.7   -2.9966862    1.2344173    3.2943836 
        43.8   -2.9925884    1.2943118    2.8757059 
        43.9   -2.9949754    1.1662402    3.5973163 
          44   -2.9972395     1.342796     2.330513 
        44.1   -2.9964202    1.3244324    2.5736323 
        44.2   -2.9961861    1.3107351    2.7573897 
        44.3   -2.9954872    1.2731577    3.0064416 
        44.4   -3.0020069    1.3343276    2.3426217 
        44.5   -2.9956946    1.2883686    2.4971821 
        44.6   -2.9964789     1.214387    3.2168697 
        44.7   -2.9940752    1.2535678    2.9212385 
        44.8   -2.9996827    1.3242078    2.4702394 
        44.9    -2.999166    1.3624206    2.4046089 
          45   -2.9973334    1.3181841    2.5085323 
        45.1   -2.9932079    1.1774499    3.4003605 
        45.2   -2.9930727    1.2508172    3.0004702 
        45.3   -3.0004997    1.1594385    3.3461254 
        45.4   -2.9943985    1.1786978    3.1898476 
        45.5   -2.9943301    1.2377707    2.8809119 
        45.6   -2.9965471    1.1757367    3.3820816 
        45.7   -2.9925403    1.2307642    3.0720561 
        45.8   -2.9983825    1.3678999    2.1255815 
        45.9   -2.9999136    1.2183366     3.011472 
          46   -2.9974058    1.3004812    2.4181136 
        46.1   -2.9976758    1.2471366    3.0973944 
        46.2   -2.9956055    1.1884301    3.3742992 
        46.3     -2.99891    1.3478157    2.4357307 
        46.4   -2.9945752    1.3777729    2.0840588 
        46.5   -2.9969967    1.3237778    2.4244248 
        46.6    -2.994997    1.2995008    2.7625703 
        46.7   -2.9916933    1.2260969    3.2374964 
        46.8   -2.9923085    1.1461827    3.8781131 
        46.9   -2.9954673    1.2651485    3.3745249 
          47    -2.998339    1.2737173     3.223359 
        47.1   -2.9969375    1.4035755    2.3587945 
        47.2   -2.9995245      1.37758    2.3997621 
        47.3   -2.9894838    1.1696258    3.5748049 
        47.4    -2.996991    1.3107885    2.7255759 
        47.5   -2.9931422    1.1933313    3.4585536 
        47.6   -2.9960717    1.1958041    3.3563248 
        47.7   -2.9967853    1.2670604    2.7870651 
        47.8   -2.9985517    1.2487918    2.8807458 
        47.9   -2.9977161    1.3051466    2.7183222 
          48   -2.9947174    1.1660082    3.6046765 
        48.1   -2.9923041    1.2499532    3.0457067 
        48.2   -2.9936829    1.2295036    3.0287635 
        48.3   -2.9964156    1.2304528    3.0995695 
        48.4   -2.9954824    1.2699696    3.0142761 
        48.5   -2.9912374     1.222444    3.5407244 
        48.6   -2.9964418    1.3151608    2.7003883 
        48.7   -2.9996288     1.226662    3.0146156 
        48.8   -3.0009133    1.3070652    2.5931921 
        48.9   -2.9993434    1.3066798    2.5751064 
          49   -2.9964541    1.3555721    2.3816395 
        49.1   -2.9915646    1.2207888    3.0551089 
        49.2   -2.9925459    1.2590363    3.0545418 
        49.3     -2.99805     1.341935    2.4655399 
        49.4   -2.9904252    1.2366619    3.0814276 
        49.5   -2.9940874    1.3512599    2.4603227 
        49.6   -2.9913341    1.2301041    3.3747271 
        49.7   -2.9924954    1.3606751    2.8582119 
        49.8   -2.9954538    1.3016412    2.7857242 
        49.9   -2.9957911     1.282206    3.0356867 
          50    -2.995267    1.2750573    2.8788979 
Loop time of 0.450011 on 8 procs for 5000 steps with 125 atoms

Performance: 9599765.020 tau/day, 11110.839 timesteps/s
225.7% CPU use with 1 MPI tasks x 8 OpenMP threads

MPI task timing breakdown:
Section |  min time  |  avg time  |  max time  |%varavg| %total
---------------------------------------------------------------
Pair    | 0.27643    | 0.27643    | 0.27643    |   0.0 | 61.43
Neigh   | 0.0079701  | 0.0079701  | 0.0079701  |   0.0 |  1.77
Comm    | 0.019306   | 0.019306   | 0.019306   |   0.0 |  4.29
Output  | 0.011679   | 0.011679   | 0.011679   |   0.0 |  2.60
Modify  | 0.13064    | 0.13064    | 0.13064    |   0.0 | 29.03
Other   |            | 0.003988   |            |       |  0.89

Nlocal:        125.000 ave         125 max         125 min
Histogram: 1 0 0 0 0 0 0 0 0 0
Nghost:        2244.00 ave        2244 max        2244 min
Histogram: 1 0 0 0 0 0 0 0 0 0
Neighs:        19057.0 ave       19057 max       19057 min
Histogram: 1 0 0 0 0 0 0 0 0 0

Total # of neighbors = 19057
Ave neighs/atom = 152.45600
Neighbor list builds = 108
Dangerous builds = 0
unfix nve
reset_timestep 0

### BRING SYSTEM TO REQUIRED STATE ###
variable tdamp equal ${timestep}*100
variable tdamp equal 0.01*100
variable pdamp equal ${timestep}*1000
variable pdamp equal 0.01*1000
fix npt all npt temp ${T} ${T} ${tdamp} iso ${p} ${p} ${pdamp}
fix npt all npt temp 1.5 ${T} ${tdamp} iso ${p} ${p} ${pdamp}
fix npt all npt temp 1.5 1.5 ${tdamp} iso ${p} ${p} ${pdamp}
fix npt all npt temp 1.5 1.5 1 iso ${p} ${p} ${pdamp}
fix npt all npt temp 1.5 1.5 1 iso 1 ${p} ${pdamp}
fix npt all npt temp 1.5 1.5 1 iso 1 1 ${pdamp}
fix npt all npt temp 1.5 1.5 1 iso 1 1 10
run 10000
Last active /omp style is pair_style lj/cut/omp
Per MPI rank memory allocation (min/avg/max) = 10.63 | 10.63 | 10.63 Mbytes
Time TotEng Temp Press 
          50    -2.995267    1.2750573    2.8788979 
        50.1   -2.9951346    1.3239006    2.4634414 
        50.2   -2.9874557    1.1832216    3.4861432 
        50.3   -2.9763334    1.2596057    2.9370829 
        50.4   -2.9551686    1.3228023    2.5086506 
        50.5   -2.9431534    1.3494511     2.228681 
        50.6    -2.918746    1.3031445    2.5711049 
        50.7   -2.8875222    1.3125352    2.6195341 
        50.8   -2.8515352    1.3132986    2.8565809 
        50.9   -2.8205365    1.2917931    3.0233431 
          51   -2.7926059    1.3073596    2.8646851 
        51.1   -2.7624294    1.3170776    2.6784606 
        51.2    -2.733972    1.4297604    2.0929816 
        51.3   -2.7196945    1.3348335    2.6408693 
        51.4   -2.7035109    1.2866314    2.6237391 
        51.5   -2.6923272    1.3128079    2.4356356 
        51.6   -2.6783392    1.3584836    2.0960629 
        51.7   -2.6747297    1.2399156    2.6499396 
        51.8   -2.6656642    1.2934138    1.9921621 
        51.9   -2.6541273    1.2938741    1.7686998 
          52   -2.6332833    1.3011048    1.6412987 
        52.1   -2.6182333    1.3690494    1.2619573 
        52.2    -2.600886    1.2443225    1.8893975 
        52.3      -2.5776    1.2961653    1.2865586 
        52.4   -2.5614375    1.2806924    1.4481753 
        52.5   -2.5284815    1.3213627    1.2897443 
        52.6    -2.498774    1.2871118    1.4129088 
        52.7   -2.4672826    1.2882221    1.2098746 
        52.8   -2.4331949    1.3112846      1.06316 
        52.9   -2.4059611    1.2827666      1.21494 
          53   -2.3689907    1.3903498   0.56105019 
        53.1   -2.3309725    1.2395503    1.3514286 
        53.2   -2.2966777    1.2156654    1.4620092 
        53.3   -2.2617579    1.2772555    1.2659593 
        53.4   -2.2297884      1.32195    1.2184796 
        53.5    -2.194434    1.3449644   0.99003158 
        53.6   -2.1623943     1.290025    1.3888451 
        53.7   -2.1294099    1.4110098   0.85732362 
        53.8   -2.0968488    1.2975534    1.4745599 
        53.9   -2.0590403    1.3939414   0.72224132 
          54   -2.0198897     1.424051   0.81829144 
        54.1   -1.9863104    1.3067186    1.5088216 
        54.2    -1.954939    1.2817007     1.382163 
        54.3   -1.9266258    1.2882969    1.4563026 
        54.4   -1.8889055    1.4508487   0.86507516 
        54.5   -1.8608926    1.4268601    1.1755612 
        54.6   -1.8258296    1.4193683    1.0913362 
        54.7   -1.7930382    1.3852402    1.1349788 
        54.8   -1.7623829    1.4558159   0.73606279 
        54.9   -1.7189634    1.4488376   0.92458789 
          55   -1.6876623    1.4558469   0.79280859 
        55.1   -1.6511084    1.4561288   0.67113825 
        55.2   -1.6204991     1.463736   0.82979473 
        55.3   -1.5847069    1.4772718   0.92255135 
        55.4   -1.5542677    1.4086373    1.6138367 
        55.5   -1.5294745     1.523586    1.2391241 
        55.6   -1.5059821    1.4991604    1.3509976 
        55.7   -1.4717678    1.4691128    1.3173023 
        55.8   -1.4449858    1.5253508    1.1886805 
        55.9   -1.4204352    1.5029825    1.4815838 
          56   -1.4007518    1.4963408     1.491226 
        56.1    -1.380487    1.5575149   0.86746416 
        56.2   -1.3571097     1.564156   0.94866908 
        56.3   -1.3429575    1.5246158    1.4419714 
        56.4   -1.3293032    1.4829369    1.4943278 
        56.5   -1.3167576    1.5523011    1.2971148 
        56.6   -1.3026848    1.5855796    1.0242565 
        56.7   -1.2894512    1.4458489     1.398564 
        56.8   -1.2783691    1.5418133   0.75024493 
        56.9     -1.26336    1.4836028    1.0124598 
          57   -1.2539556    1.5023578    1.2046026 
        57.1   -1.2462996    1.5548071    1.0042738 
        57.2   -1.2361279    1.4853404    1.3437022 
        57.3   -1.2278311    1.5115426    1.2163345 
        57.4   -1.2172504    1.5374273    1.1565305 
        57.5   -1.2093294    1.4824839    1.2962442 
        57.6   -1.2048926    1.5716114   0.97668743 
        57.7   -1.1994489    1.5246812     1.178113 
        57.8   -1.1942349    1.5172595    1.0610625 
        57.9   -1.1889034     1.509195   0.93007341 
          58    -1.179858    1.5151318   0.96529193 
        58.1   -1.1738189    1.4837504     1.044819 
        58.2   -1.1725237    1.5441548   0.98304436 
        58.3   -1.1622223    1.5224783    1.1301557 
        58.4   -1.1653169    1.4644693    1.2330577 
        58.5    -1.156163    1.4611535    1.1035222 
        58.6   -1.1416549     1.567898   0.66002195 
        58.7   -1.1381449    1.4621644    1.1039542 
        58.8   -1.1266901    1.4877808    0.9385249 
        58.9   -1.1171296    1.6393153   0.38005624 
          59   -1.1015458    1.4650787      1.20421 
        59.1   -1.0903558    1.5038257    1.0591846 
        59.2     -1.07271    1.4624559   0.93194312 
        59.3   -1.0569709    1.4914587   0.58414228 
        59.4   -1.0386615    1.4865761   0.87538304 
        59.5   -1.0179103    1.5504768   0.93213883 
        59.6  -0.98770581    1.5968116    0.7773235 
        59.7  -0.95963639    1.5116685    1.2698771 
        59.8  -0.93807909    1.6759862   0.91585969 
        59.9  -0.91361196    1.6791709   0.89957723 
          60  -0.89414191    1.6605976   0.90367102 
        60.1  -0.87582472     1.654245   0.88875508 
        60.2  -0.85427863    1.6320926   0.68281451 
        60.3  -0.84337576    1.5799296    1.0902574 
        60.4  -0.82806847    1.6435855   0.85900358 
        60.5  -0.81565464     1.654111   0.81568892 
        60.6  -0.80744787    1.6974174   0.81184014 
        60.7  -0.80855788    1.6846417    1.0885451 
        60.8  -0.80674037    1.6890863   0.92221785 
        60.9  -0.82283539    1.6101685    1.5520869 
          61  -0.84018057    1.6438679    1.4051018 
        61.1  -0.85458245     1.568175    1.4885079 
        61.2  -0.88952224    1.6745561   0.68420367 
        61.3  -0.91535095    1.6266157   0.48831978 
        61.4  -0.95134057    1.4780779   0.86726642 
        61.5  -0.98951002     1.479749   0.67291376 
        61.6   -1.0331949    1.4826791    0.4978395 
        61.7   -1.0752242    1.4277997   0.60679914 
        61.8   -1.1169854    1.4371137   0.61571384 
        61.9   -1.1507854    1.3202424   0.91965128 
          62   -1.1846314    1.3212775   0.89221011 
        62.1   -1.2157665    1.3692217   0.72957507 
        62.2   -1.2391589    1.3755525   0.53115305 
        62.3   -1.2555882    1.3210131   0.51647625 
        62.4   -1.2691747    1.3428252   0.36861316 
        62.5   -1.2817241      1.36729    0.4425766 
        62.6   -1.2832242    1.2626117   0.94224985 
        62.7   -1.2825156    1.3941677   0.29084472 
        62.8   -1.2791812      1.36639   0.23962082 
        62.9    -1.264652    1.3365002    0.4299765 
          63   -1.2516273    1.3477495   0.53924522 
        63.1   -1.2290565    1.3558084   0.63267689 
        63.2   -1.2070472    1.4140115   0.46723818 
        63.3   -1.1830575    1.4422599   0.39270166 
        63.4   -1.1508267    1.4699018   0.42657941 
        63.5   -1.1154098     1.478822   0.53375964 
        63.6   -1.0798143    1.4272739   0.87537929 
        63.7   -1.0424497    1.5361291    0.5663499 
        63.8   -1.0040732    1.4387678    1.2778088 
        63.9  -0.95978519     1.402588    1.3614078 
          64  -0.92593454    1.5591421   0.75093185 
        64.1  -0.89209823    1.6113708   0.71763787 
        64.2  -0.86438158    1.6231485   0.95838283 
        64.3   -0.8426137    1.5570839    1.5056594 
        64.4  -0.82978566    1.6175218    1.4228548 
        64.5   -0.8158979     1.658663    1.1954852 
        64.6  -0.80464368    1.6040836      1.32765 
        64.7  -0.80845935    1.7286135   0.81259446 
        64.8  -0.81636958    1.6381842     1.412141 
        64.9   -0.8244552    1.6924436   0.92939808 
          65  -0.83833313    1.7006645   0.64511639 
        65.1  -0.85410972    1.5910754    1.2051589 
        65.2  -0.87214537    1.6803046    1.0423601 
        65.3  -0.88714758     1.589322    1.5014521 
        65.4  -0.90607843     1.661961    1.0294572 
        65.5  -0.92984895    1.6729868   0.88752911 
        65.6  -0.95328657    1.6845069   0.70614089 
        65.7  -0.97956159    1.6333475   0.85566045 
        65.8   -1.0027851    1.6236821   0.95721541 
        65.9   -1.0277955    1.6037496   0.91023068 
          66   -1.0564126     1.587659    1.0994826 
        66.1   -1.0818914    1.5693566    1.1529167 
        66.2   -1.1026429    1.5812496   0.91116133 
        66.3   -1.1294167    1.5809334   0.66097849 
        66.4   -1.1535939    1.5276062   0.89210703 
        66.5   -1.1726706    1.3854827    1.4309541 
        66.6   -1.1948723    1.4407979    1.0954016 
        66.7   -1.2076882    1.4910382   0.77720149 
        66.8   -1.2237598    1.4526512   0.99550371 
        66.9   -1.2354008    1.5013959   0.65638134 
          67   -1.2499893    1.4648766   0.72994898 
        67.1   -1.2604738    1.3600648    1.2450407 
        67.2   -1.2674679    1.4930576   0.70399045 
        67.3   -1.2741216     1.383887    1.2116677 
        67.4    -1.280241    1.4823114   0.71512969 
        67.5   -1.2812117    1.4258352    1.0128235 
        67.6    -1.284802    1.4628917   0.77725118 
        67.7   -1.2861751    1.3840158    1.0464274 
        67.8   -1.2845476    1.5377757   0.24854696 
        67.9   -1.2820413    1.4408246   0.92165737 
          68    -1.284147     1.521191   0.77731761 
        68.1   -1.2838514     1.415889    1.4299392 
        68.2    -1.280375    1.5313421     1.099337 
        68.3   -1.2753891    1.4878764    1.1190876 
        68.4    -1.275225    1.4303081    1.3501845 
        68.5   -1.2729242    1.5564617   0.89414673 
        68.6   -1.2704735    1.5860456   0.79031847 
        68.7   -1.2750222    1.4161131    1.5915991 
        68.8   -1.2742595    1.5314338   0.92756715 
        68.9   -1.2726677    1.4835742   0.86353542 
          69   -1.2810932    1.5826356    0.4595893 
        69.1   -1.2863419    1.4833417    1.0509314 
        69.2   -1.2921288    1.6116319   0.60258187 
        69.3   -1.3045071     1.505306    1.0489741 
        69.4   -1.3113387    1.4794129    1.1457429 
        69.5   -1.3264768     1.465381     1.161452 
        69.6   -1.3431494    1.4920941   0.96091669 
        69.7   -1.3566115    1.5444438   0.55165944 
        69.8   -1.3754843    1.4726908   0.75760273 
        69.9   -1.3893258    1.4012532    1.1524934 
          70   -1.4059973    1.4376613   0.91849204 
        70.1   -1.4231763     1.521316    0.7086733 
        70.2   -1.4353544    1.3227471    1.5698797 
        70.3   -1.4489595    1.4787461   0.72021054 
        70.4   -1.4620954    1.3854469    1.1943574 
        70.5   -1.4736577    1.4163714    1.0825442 
        70.6   -1.4747991    1.3131489    1.5457924 
        70.7   -1.4813629     1.403854    1.1355633 
        70.8   -1.4841577    1.4054585    1.1941547 
        70.9   -1.4830331    1.4172834    1.2330729 
          71   -1.4797973    1.4896001   0.62188659 
        71.1   -1.4786483     1.366886    1.3775859 
        71.2   -1.4750543     1.404607    1.3259703 
        71.3   -1.4682792    1.3948312    1.1845002 
        71.4    -1.461397    1.4459748   0.81433116 
        71.5   -1.4456295    1.4932808   0.64492346 
        71.6   -1.4332493     1.422385    1.1650788 
        71.7   -1.4135483    1.4800578   0.86959346 
        71.8   -1.3924831    1.4949901   0.82595901 
        71.9   -1.3720255    1.4162233    1.2205201 
          72   -1.3502957    1.5009125    1.0208589 
        72.1   -1.3227243    1.4990219    1.1116932 
        72.2   -1.2978465    1.5738847   0.84968698 
        72.3   -1.2673502    1.6093101   0.96398355 
        72.4   -1.2357016     1.567404    1.4149964 
        72.5   -1.2082551    1.6361278    1.2849691 
        72.6   -1.1781522     1.575219    1.6170615 
        72.7   -1.1560446    1.6451106     1.483529 
        72.8   -1.1336628    1.7227459    1.1748201 
        72.9   -1.1219467    1.6660064    1.4284369 
          73   -1.1147174    1.6507263    1.4674047 
        73.1   -1.1111171    1.6318456    1.5285738 
        73.2   -1.1110819    1.6048434    1.7093218 
        73.3   -1.1080717    1.5361854     2.002943 
        73.4   -1.1228064    1.6460005    1.2756212 
        73.5   -1.1371739    1.6159241    1.5293317 
        73.6   -1.1620935    1.5778171    1.6221412 
        73.7    -1.189278    1.6368766    1.0771536 
        73.8   -1.2274636    1.4039261    2.0330591 
        73.9   -1.2638486    1.5635328    1.1570744 
          74   -1.3064786    1.5910656   0.80501188 
        74.1   -1.3593009    1.5250031    1.0767381 
        74.2   -1.4112134    1.4864877    1.0420649 
        74.3   -1.4600879    1.3200708    1.5718211 
        74.4    -1.510186    1.4650148   0.88851797 
        74.5   -1.5551151    1.3736111    1.1918542 
        74.6   -1.5918526    1.3295136     1.178992 
        74.7   -1.6201621    1.3889124   0.76976371 
        74.8   -1.6342262    1.3253873   0.81218124 
        74.9   -1.6499038    1.4110885   0.21682198 
          75   -1.6584645    1.3765241   0.31941342 
        75.1   -1.6662811    1.2988467    0.7242078 
        75.2   -1.6646545    1.3233196   0.55678032 
        75.3   -1.6556114    1.3348848   0.36265389 
        75.4   -1.6481357    1.2332241   0.93777788 
        75.5   -1.6367648     1.302678   0.88657543 
        75.6   -1.6206176    1.3485777   0.51753873 
        75.7   -1.5985682    1.2902629   0.52827166 
        75.8    -1.575792      1.40986   0.20964055 
        75.9   -1.5489148    1.3635661   0.69173448 
          76   -1.5296755    1.4145979   0.65812751 
        76.1   -1.4932688    1.4035271     0.667533 
        76.2   -1.4642375    1.4587937    0.3451971 
        76.3   -1.4378196    1.4205021   0.66683501 
        76.4   -1.4114602    1.5188598   0.48008301 
        76.5   -1.3915635    1.4405181    1.1889773 
        76.6   -1.3756764    1.4409088    1.4486985 
        76.7   -1.3565643    1.5063613    1.3091812 
        76.8   -1.3404519    1.4101588    1.9348446 
        76.9   -1.3263171    1.5412419    1.4003105 
          77   -1.3092981     1.641854   0.79408935 
        77.1   -1.2934301    1.4878016    1.2235849 
        77.2   -1.2896761    1.5224335    0.9371452 
        77.3   -1.2786216    1.5353543   0.93280091 
        77.4   -1.2763454     1.592259    0.6733829 
        77.5   -1.2681439    1.5579048   0.73186523 
        77.6   -1.2696035     1.569655    0.8299198 
        77.7   -1.2638745    1.4910946    1.2571314 
        77.8   -1.2585106      1.55269   0.94034882 
        77.9   -1.2567938    1.5066819     1.180406 
          78   -1.2633018    1.5054865    1.4226311 
        78.1   -1.2647873    1.5318892    1.1782404 
        78.2   -1.2679773    1.3740636    1.8654848 
        78.3   -1.2737728    1.5960904   0.80794843 
        78.4   -1.2809316    1.6254543   0.67348663 
        78.5    -1.291825    1.4569646     1.318464 
        78.6   -1.2957004      1.44735    1.1699562 
        78.7   -1.3021519    1.4124729    1.2640965 
        78.8    -1.309475    1.5290865   0.82906505 
        78.9   -1.3185637     1.409469    1.2472444 
          79   -1.3222224     1.466836   0.88876739 
        79.1   -1.3274177    1.4107114    1.3037877 
        79.2   -1.3352071    1.4700657    1.0141979 
        79.3   -1.3395317    1.5162788   0.64606609 
        79.4   -1.3419515    1.4133264    1.0169296 
        79.5    -1.342849    1.4584217   0.92154801 
        79.6   -1.3443602    1.4333982    0.9460606 
        79.7   -1.3441362    1.4395044   0.87770859 
        79.8   -1.3412673    1.4648377   0.67158712 
        79.9   -1.3405549    1.4314205    1.0051298 
          80   -1.3420869    1.5750465   0.71038308 
        80.1   -1.3456468    1.4512191    1.2828672 
        80.2   -1.3358049    1.5128675    1.1016129 
        80.3   -1.3369062    1.5563577   0.65241155 
        80.4   -1.3295688    1.4595213    1.0529525 
        80.5   -1.3261524    1.3860963    1.3709889 
        80.6   -1.3219497    1.4789524    1.0218777 
        80.7   -1.3169872     1.422998    1.3358617 
        80.8   -1.3068882     1.448181    1.3016578 
        80.9   -1.2919824    1.5575337   0.84917978 
          81   -1.2777302    1.5671648   0.90041964 
        81.1   -1.2698476     1.511704    1.1881015 
        81.2   -1.2537453    1.5295375    1.0730294 
        81.3   -1.2408706    1.6096862   0.53884566 
        81.4   -1.2286204    1.4970386    1.1267592 
        81.5   -1.2156759    1.5037668    1.3388878 
        81.6   -1.2038592    1.5787045    1.0507331 
        81.7   -1.1939995     1.590925   0.91949854 
        81.8   -1.1771945     1.506874    1.3376563 
        81.9   -1.1685954    1.4985149    1.4253316 
          82   -1.1614309    1.5406062    1.1094818 
        82.1   -1.1497812    1.5517945   0.84302475 
        82.2   -1.1435543    1.5121721     1.087694 
        82.3   -1.1376631      1.58553   0.93808908 
        82.4    -1.125316    1.5296671    1.4045318 
        82.5   -1.1201916    1.5848063    1.4286554 
        82.6   -1.1258102    1.5415195    1.8042121 
        82.7   -1.1210509    1.5801714    1.3941788 
        82.8   -1.1239703    1.4843388    1.5121243 
        82.9   -1.1238975    1.5579351    1.1483986 
          83   -1.1227128     1.527718    1.1443041 
        83.1    -1.124436    1.4725738    1.2947477 
        83.2   -1.1289627    1.4583881    1.4827908 
        83.3   -1.1319377    1.5610123   0.96013789 
        83.4   -1.1326883    1.5617041   0.85053343 
        83.5   -1.1339889    1.4593188    1.0845882 
        83.6   -1.1306967    1.4213202    1.1274358 
        83.7   -1.1285543    1.5674441   0.58892395 
        83.8   -1.1330474    1.4612238    1.0550143 
        83.9    -1.135249    1.5088817   0.87641837 
          84   -1.1339993    1.4814634   0.83743671 
        84.1   -1.1343129    1.4972732    0.6244081 
        84.2   -1.1350937    1.4980393   0.72222924 
        84.3   -1.1333295    1.4805757   0.71709852 
        84.4   -1.1313791    1.4156486   0.93255559 
        84.5   -1.1279096    1.4659881   0.64919406 
        84.6   -1.1207974      1.45355   0.84960934 
        84.7   -1.1115528    1.4830601   0.78961663 
        84.8   -1.0966336    1.4409247      1.18426 
        84.9   -1.0833324    1.4725774    1.0202429 
          85   -1.0669812    1.6244159   0.18116918 
        85.1   -1.0507864    1.4795601   0.90789407 
        85.2   -1.0293832    1.5187106   0.90878731 
        85.3   -1.0111444    1.5276581   0.84028653 
        85.4  -0.98759579    1.5581713   0.89013014 
        85.5  -0.96034597    1.5734809   0.66440209 
        85.6  -0.93509456    1.5923625   0.60479237 
        85.7  -0.91239059    1.5823355   0.74298235 
        85.8  -0.89266644    1.6707317   0.35926341 
        85.9  -0.87288245     1.584331   0.71979707 
          86  -0.85289977    1.5120579    1.1087971 
        86.1  -0.83600875    1.6237451   0.91119782 
        86.2  -0.82217278    1.6112143    1.0128799 
        86.3  -0.80688162    1.6596584   0.81851224 
        86.4  -0.79593377    1.6270532   0.90835167 
        86.5  -0.78451306    1.6850128   0.72141903 
        86.6  -0.77846289    1.6109536   0.94433779 
        86.7  -0.78472276    1.5716689    1.1050109 
        86.8    -0.785871    1.5891564     1.133612 
        86.9  -0.79594176    1.6836646   0.74162741 
          87  -0.80608835    1.6525477   0.83509521 
        87.1   -0.8237739     1.632529   0.81157618 
        87.2  -0.85059037    1.5619687    1.1716382 
        87.3  -0.87510348    1.5618163     1.054394 
        87.4  -0.91091843    1.5782571   0.89190576 
        87.5  -0.95256192    1.5631765   0.75517012 
        87.6  -0.99236712    1.4789345   0.77737923 
        87.7   -1.0428507    1.5294049   0.36029175 
        87.8   -1.0899832     1.425067   0.68970723 
        87.9   -1.1324975    1.3910457    1.0043361 
          88    -1.165645    1.4333876   0.80012089 
        88.1   -1.1992845    1.4090387   0.73616028 
        88.2    -1.229766    1.4189582   0.79458749 
        88.3   -1.2491628    1.3831364   0.96008838 
        88.4   -1.2678482    1.4198427   0.55245028 
        88.5    -1.281074    1.3766628   0.50493057 
        88.6   -1.2888921    1.3455224   0.63803178 
        88.7   -1.2957923     1.410494   0.31952688 
        88.8   -1.2969463    1.3780818   0.50999133 
        88.9   -1.2959088    1.4080783   0.58670139 
          89   -1.2880306    1.3907997   0.68336666 
        89.1   -1.2796407    1.3658882   0.86661005 
        89.2   -1.2716866    1.4074645     0.571229 
        89.3   -1.2582289    1.4812703   0.28685043 
        89.4   -1.2461774    1.4813111   0.48795452 
        89.5   -1.2302355    1.4319776   0.77382373 
        89.6   -1.2111861    1.4381474   0.67311861 
        89.7   -1.1892362    1.4871726   0.33589557 
        89.8   -1.1757185    1.4376174   0.71836511 
        89.9   -1.1569852     1.518674   0.54543856 
          90   -1.1332758    1.5000787    1.0023031 
        90.1   -1.1080816    1.4622716    1.3331604 
        90.2   -1.0883314    1.5170431    1.1654097 
        90.3   -1.0629923    1.5722054   0.94990189 
        90.4   -1.0423539    1.5393721    1.1355097 
        90.5    -1.025485    1.6486278   0.65498757 
        90.6   -1.0048209    1.5407068    1.3043191 
        90.7  -0.98667926    1.5384698    1.4199081 
        90.8  -0.97735882    1.6572053   0.87127308 
        90.9   -0.9659759    1.6124195    1.1635564 
          91  -0.95344724    1.6513166   0.89397835 
        91.1  -0.94781793    1.6309105    1.1257432 
        91.2  -0.94900718    1.5612558    1.4473999 
        91.3  -0.95553364    1.6942174    0.7438289 
        91.4  -0.96622074    1.6077416    1.3562797 
        91.5  -0.99705283      1.58475    1.5077016 
        91.6   -1.0451726    1.6923769   0.78734863 
        91.7   -1.1056699    1.6158526    1.0180682 
        91.8   -1.1747201    1.5735186   0.79962271 
        91.9   -1.2563879    1.5199459   0.74008163 
          92   -1.3294918    1.4512396    1.0248513 
        92.1   -1.3966287    1.5246244   0.69977359 
        92.2   -1.4455459    1.3410678    1.4221147 
        92.3   -1.4839407    1.4462556     1.104852 
        92.4   -1.5052109    1.3985236    1.3985714 
        92.5    -1.533963     1.509434   0.76925105 
        92.6   -1.5534815    1.4417696   0.89083036 
        92.7   -1.5637714    1.4009033   0.86370607 
        92.8   -1.5747809     1.371773   0.84138514 
        92.9   -1.5848122    1.3781597   0.80364942 
          93   -1.5884417      1.40706   0.71729204 
        93.1   -1.5905405    1.4260334   0.69131311 
        93.2   -1.5874356     1.379736    1.0102134 
        93.3   -1.5821019    1.4582324   0.67770207 
        93.4   -1.5756458     1.418453   0.83330586 
        93.5   -1.5664848    1.4253537   0.81828014 
        93.6   -1.5538492    1.4315541   0.90658345 
        93.7   -1.5377558    1.4495049    0.9746128 
        93.8   -1.5219829     1.360263    1.4903485 
        93.9    -1.501102     1.519266   0.94838893 
          94    -1.483505    1.4748532    1.3725734 
        94.1   -1.4620423    1.5404432    1.0213671 
        94.2   -1.4432239    1.4724715    1.3199689 
        94.3   -1.4208179    1.4694309    1.5115115 
        94.4   -1.3932133    1.6063871    1.1914716 
        94.5   -1.3725658    1.5943778     1.443901 
        94.6   -1.3512434    1.5953544     1.352139 
        94.7   -1.3301162    1.6389454    1.3059205 
        94.8   -1.3200726    1.5610118    1.7627759 
        94.9   -1.2997513    1.5748461    1.7544564 
          95   -1.2938856    1.7184724    1.1056101 
        95.1   -1.2836029    1.5805168    1.8147838 
        95.2   -1.2735454    1.6051913    1.6529207 
        95.3   -1.2806998    1.6390335    1.3260578 
        95.4   -1.2817263    1.6187751    1.2622184 
        95.5   -1.2958269    1.4714278    2.0877232 
        95.6   -1.3018558    1.5765269    1.4101031 
        95.7   -1.3261357    1.4996517    1.8574112 
        95.8    -1.344946    1.4839098    1.8842071 
        95.9   -1.3761752    1.5253312    1.6113502 
          96    -1.408565    1.5510742    1.3093882 
        96.1   -1.4393125    1.5081864    1.3220791 
        96.2   -1.4694693     1.493659    1.4431159 
        96.3   -1.5115411     1.408983    1.5370383 
        96.4   -1.5506731    1.4494731   0.78269629 
        96.5   -1.5853282    1.4176518   0.80482201 
        96.6   -1.6178584    1.4104696     1.111898 
        96.7   -1.6495154    1.3986045    1.1037985 
        96.8   -1.6760695    1.3473507    1.0696952 
        96.9   -1.7044038    1.2629155    1.3143699 
          97   -1.7225881    1.3504462   0.82164904 
        97.1    -1.739286    1.3621185    0.6319216 
        97.2   -1.7486608      1.35535    0.6349974 
        97.3   -1.7547014    1.2501954    1.0984193 
        97.4   -1.7616275    1.3950572   0.56702494 
        97.5   -1.7647687    1.3660785   0.68177391 
        97.6    -1.762845    1.3477742   0.71352213 
        97.7   -1.7471549    1.3727576   0.63819635 
        97.8   -1.7302738    1.3592822   0.81613096 
        97.9   -1.7066248    1.3214127    1.0473852 
          98   -1.6809069    1.4376077   0.59606696 
        98.1   -1.6482722    1.4024555   0.90424365 
        98.2   -1.6088138    1.4972303   0.66830792 
        98.3   -1.5650482    1.4751129   0.98371652 
        98.4   -1.5160267    1.4649467    1.3672135 
        98.5   -1.4642254    1.4889409    1.4784337 
        98.6   -1.4038248    1.5859366   0.94817934 
        98.7   -1.3503842     1.589794    1.0680689 
        98.8   -1.3071652     1.504174    1.6081275 
        98.9    -1.274215    1.5850772    1.3533643 
          99   -1.2433038    1.6529639    1.2029367 
        99.1     -1.22594    1.4779552    1.9187272 
        99.2   -1.2171334    1.5477214     1.527347 
        99.3   -1.2125273    1.5617179    1.4124726 
        99.4   -1.2065288    1.6273427    1.1881284 
        99.5   -1.2064715    1.6007046    1.2361335 
        99.6   -1.2031828    1.5872634     1.305236 
        99.7   -1.2095504     1.493985    1.7438224 
        99.8   -1.2236196     1.616345    1.1605376 
        99.9   -1.2357445    1.5232484    1.5001744 
         100     -1.24701    1.4856286    1.4446527 
       100.1   -1.2598272    1.5358233    1.2734439 
       100.2   -1.2757651    1.5145291    1.3392346 
       100.3   -1.2984606    1.5728817    1.1638703 
       100.4   -1.3078068    1.4998374    1.3503991 
       100.5   -1.3206006    1.5484419   0.86351554 
       100.6   -1.3380174     1.399818      1.24991 
       100.7   -1.3528652    1.5011678   0.65429541 
       100.8   -1.3646597    1.4701141    0.8705256 
       100.9   -1.3727825    1.4427568   0.81239134 
         101    -1.383102    1.3497641    1.1535854 
       101.1   -1.3938937    1.3610041    1.0514233 
       101.2    -1.398739    1.4354814   0.84567775 
       101.3    -1.404395    1.4227791   0.99518078 
       101.4   -1.4034539    1.4300086    1.0903698 
       101.5   -1.4040872    1.5315097   0.56264167 
       101.6   -1.3998378    1.4057128    1.0893427 
       101.7   -1.3976179    1.4125553    1.1243476 
       101.8   -1.3949383    1.4396666   0.83311822 
       101.9   -1.3792387    1.4289802   0.88506783 
         102   -1.3642099    1.4640835   0.68861368 
       102.1   -1.3391182    1.4834281   0.57005157 
       102.2   -1.3131232    1.3582148    1.0886262 
       102.3   -1.2832172    1.5124203   0.39091453 
       102.4   -1.2481622    1.4651011    0.6980518 
       102.5   -1.2062227    1.5303735   0.53845873 
       102.6   -1.1659729    1.4316198    1.1290363 
       102.7   -1.1184897    1.4888221   0.82244314 
       102.8   -1.0697862    1.4424423    1.1096261 
       102.9    -1.022682     1.601773   0.72268824 
         103  -0.98225544    1.6099184   0.93777647 
       103.1  -0.94897771    1.5664357    1.3874926 
       103.2  -0.92971697    1.6377967    1.0926805 
       103.3  -0.91182554    1.6666517   0.93959762 
       103.4  -0.89421169    1.5702078    1.1100118 
       103.5  -0.89026391    1.6617438   0.60605533 
       103.6   -0.8843244    1.6188459   0.70034863 
       103.7  -0.88745249    1.5339372    1.1860425 
       103.8  -0.89520397    1.5748224    1.1123346 
       103.9  -0.90128639    1.6410586    0.8745666 
         104  -0.91060498    1.6384461   0.97005147 
       104.1   -0.9240719    1.6644182    0.9011395 
       104.2  -0.93896169    1.5167786    1.4468837 
       104.3  -0.95784166    1.5334495    1.3320182 
       104.4  -0.97195437    1.5850207   0.84681044 
       104.5   -0.9875143    1.5276284   0.88156772 
       104.6   -1.0071614    1.5877006   0.53698947 
       104.7    -1.026262    1.4838731   0.88760917 
       104.8   -1.0387733    1.4993353   0.88182714 
       104.9   -1.0573742    1.4679611    1.0254618 
         105   -1.0744026    1.4186907    1.1545969 
       105.1   -1.0915354    1.4863205   0.69453372 
       105.2   -1.1015596    1.4502469   0.64150579 
       105.3   -1.1082695    1.4186439   0.74172244 
       105.4   -1.1155808    1.4765003   0.33411557 
       105.5   -1.1197494    1.4008501   0.62165202 
       105.6    -1.126187    1.4019225   0.70288428 
       105.7   -1.1232459    1.3867608   0.90580205 
       105.8   -1.1244626    1.4435075   0.63174219 
       105.9   -1.1207848    1.3755583   0.80798611 
         106   -1.1126662    1.4748112   0.41803099 
       106.1   -1.1031718    1.4923821   0.34166934 
       106.2   -1.0893311    1.4503406   0.74108245 
       106.3   -1.0710516    1.5637732   0.52080556 
       106.4   -1.0478455    1.4310014   0.99947995 
       106.5   -1.0187231    1.5473482   0.57199452 
       106.6  -0.98364561    1.4964333   0.99001604 
       106.7  -0.94041396    1.5417545   0.72990419 
       106.8  -0.88666898    1.5977512   0.58499962 
       106.9  -0.83259806    1.6560678   0.55233815 
         107  -0.76685786    1.6713309   0.73154785 
       107.1  -0.70542242    1.5856099    1.4383472 
       107.2   -0.6395326     1.647041    1.4267961 
       107.3  -0.58338682    1.7381798    1.1751469 
       107.4  -0.54308782    1.8380018   0.96478431 
       107.5  -0.51279395     1.855283     1.081233 
       107.6  -0.49745833    1.8061465    1.4484535 
       107.7  -0.49823245    1.8828304    1.1671137 
       107.8  -0.50192692    1.8062187    1.4401956 
       107.9  -0.52477139    1.7330902    1.5551588 
         108  -0.54126297     1.850414   0.95037149 
       108.1  -0.57759395    1.7917054   0.92498949 
       108.2  -0.62113713    1.6750189    1.1366403 
       108.3  -0.65879438    1.6418251    1.0975209 
       108.4   -0.7025591    1.6043524    1.2625745 
       108.5   -0.7500166    1.5454967    1.4746113 
       108.6  -0.78522596     1.606485    1.1325825 
       108.7  -0.82126485    1.6203796   0.85584907 
       108.8  -0.85198764    1.6215957   0.47661048 
       108.9  -0.88429955    1.4951972     1.119865 
         109  -0.90486053    1.5376792   0.92445015 
       109.1  -0.93191984    1.4991482   0.90733556 
       109.2  -0.95052644    1.4753828   0.74439258 
       109.3  -0.97129883    1.5710755   0.33441056 
       109.4  -0.98614379    1.5299074   0.45888418 
       109.5   -0.9983242    1.4055998   0.97573015 
       109.6   -1.0096928    1.5246751   0.61433089 
       109.7   -1.0191985    1.4921383   0.73836291 
       109.8   -1.0298484    1.5442907   0.48639817 
       109.9   -1.0374623    1.4338838    1.0396961 
         110   -1.0402974    1.5336245   0.57501668 
       110.1   -1.0482985    1.4058538    1.0026626 
       110.2   -1.0566106    1.4613904   0.75947865 
       110.3   -1.0603836    1.4194083   0.76142297 
       110.4   -1.0572924    1.3663682   0.95671047 
       110.5   -1.0607344    1.4507942   0.67339417 
       110.6   -1.0624097    1.4037853   0.96601348 
       110.7   -1.0548466     1.541236    0.5630572 
       110.8   -1.0534629    1.4286472    1.0049108 
       110.9   -1.0518499    1.5640513   0.47636371 
         111   -1.0433453    1.3755905    1.3621925 
       111.1   -1.0352623    1.5170922   0.69761748 
       111.2   -1.0256712    1.4155164    1.1479854 
       111.3   -1.0180063    1.4909554   0.85249859 
       111.4   -1.0101458    1.5149606   0.99816491 
       111.5  -0.99371551    1.4481219    1.4510213 
       111.6  -0.98106808    1.6153257   0.74964028 
       111.7  -0.96782978    1.5239545     1.157011 
       111.8  -0.95174277    1.6176413   0.76968879 
       111.9  -0.93991681    1.6462759   0.73396186 
         112  -0.92892065     1.647686   0.81028839 
       112.1  -0.92387241    1.6018668   0.93245783 
       112.2  -0.91413876    1.5653286    1.0062055 
       112.3  -0.91416913    1.6463092    0.6663384 
       112.4  -0.91814968    1.5719207     1.306813 
       112.5  -0.91696447    1.6634222    1.1359383 
       112.6   -0.9336306    1.5800011    1.6076838 
       112.7  -0.95397506    1.6865254   0.82743877 
       112.8  -0.97895064    1.6668146   0.59497918 
       112.9   -1.0075715    1.5172448    1.2122131 
         113   -1.0444938     1.544778    0.9425896 
       113.1   -1.0815699    1.4837321    1.1036051 
       113.2   -1.1226981    1.5493821   0.76612526 
       113.3   -1.1584532    1.4691862    1.0346338 
       113.4   -1.1997386    1.4898122   0.96734885 
       113.5   -1.2342018    1.4764362   0.91843204 
       113.6    -1.265139    1.4311585    1.0068539 
       113.7    -1.287148    1.3829957    1.1159165 
       113.8   -1.3191183    1.5061338    0.7544595 
       113.9   -1.3361054    1.3589982    1.3300444 
         114   -1.3569478    1.4978556   0.54588153 
       114.1   -1.3702819    1.4249632   0.74398115 
       114.2   -1.3868187    1.4414792   0.64377535 
       114.3    -1.397052    1.5091686    0.4683392 
       114.4    -1.402415    1.4169319   0.81907758 
       114.5   -1.4085476    1.3711323   0.99937281 
       114.6   -1.4079895    1.3966586   0.82120415 
       114.7   -1.4090144    1.4303707   0.69661569 
       114.8   -1.4060377    1.4521274   0.54833529 
       114.9   -1.4020287    1.3821596    1.0143819 
         115   -1.3997504    1.4160953   0.88812016 
       115.1   -1.3869131    1.4052854    0.9278095 
       115.2     -1.37774    1.4241394    1.0076139 
       115.3   -1.3574071    1.4246772    1.0674523 
       115.4   -1.3369376    1.3230727    1.5221377 
       115.5   -1.3194422    1.4394587    1.0698686 
       115.6   -1.2954227     1.540223   0.76505944 
       115.7   -1.2711161    1.5541982    1.0946129 
       115.8   -1.2396545    1.5757233    1.0774344 
       115.9   -1.2113757    1.5882204    1.1105844 
         116   -1.1738914    1.4260981    2.0325713 
       116.1   -1.1414541    1.5715728    1.4668571 
       116.2   -1.1074869    1.6367444    1.4609795 
       116.3   -1.0805924    1.6769594    1.4632911 
       116.4   -1.0439653    1.7172304    1.3300508 
       116.5   -1.0173425    1.6539791    1.9025259 
       116.6   -1.0002078    1.6819059    1.9441586 
       116.7  -0.98075375    1.7791469    1.4179337 
       116.8  -0.96733907    1.8234506    1.1988694 
       116.9  -0.95757874     1.795056    1.3300754 
         117  -0.95449826    1.8268001    1.0116762 
       117.1  -0.97077533    1.7639471    1.3033828 
       117.2  -0.98923316    1.7245935    1.6688103 
       117.3   -1.0260083    1.7423687    1.2277082 
       117.4   -1.0738777    1.6195659    1.7019358 
       117.5   -1.1267177    1.6150777    1.7382643 
       117.6   -1.1859671    1.5711786    1.4630231 
       117.7   -1.2578933    1.6362109   0.83674927 
       117.8   -1.3228572    1.5210183    1.2504709 
       117.9    -1.380126    1.6361869   0.48925115 
         118   -1.4282122    1.4853085   0.95323531 
       118.1   -1.4677318    1.5228522    0.6388784 
       118.2   -1.5072285    1.4323181    1.0456424 
       118.3   -1.5292289    1.3985208     1.178106 
       118.4   -1.5534712    1.4197012    1.0560212 
       118.5   -1.5728656    1.4498513   0.86742535 
       118.6   -1.5820117    1.3585735    1.3613677 
       118.7   -1.5921207    1.2937212    1.6430025 
       118.8   -1.5965077    1.3591348    1.2687238 
       118.9   -1.5968463    1.3915275   0.98036746 
         119   -1.5977734    1.3420214    1.0559257 
       119.1   -1.5906799    1.3675648    0.7398826 
       119.2   -1.5853808    1.3409002   0.75599286 
       119.3   -1.5729557    1.3775055   0.78350006 
       119.4   -1.5628344    1.4121734   0.92453365 
       119.5   -1.5416404    1.3980515    1.0895025 
       119.6   -1.5230978    1.4280425   0.92357106 
       119.7   -1.4999382    1.3786099     1.136038 
       119.8    -1.480527    1.3948613     1.083006 
       119.9   -1.4485083    1.5133409   0.65063821 
         120   -1.4234325    1.4333718    1.2463635 
       120.1   -1.3987571     1.459899    1.4040313 
       120.2   -1.3652291    1.4841771    1.3932184 
       120.3    -1.335147    1.5544569    1.0874577 
       120.4   -1.3014193    1.4304576    1.5751347 
       120.5   -1.2754192    1.5582023   0.99419453 
       120.6   -1.2484689    1.5041408    1.3049639 
       120.7   -1.2260981    1.5965374     1.126555 
       120.8   -1.2022302    1.6260964    1.1579505 
       120.9   -1.1833257    1.6304203    1.0231902 
         121   -1.1697246    1.5678427    1.2243735 
       121.1   -1.1573948    1.5463742    1.3462112 
       121.2   -1.1516222      1.58891    1.2044879 
       121.3   -1.1443106     1.594682    1.1824155 
       121.4   -1.1381942    1.6067417    1.2475379 
       121.5   -1.1348185    1.6177576    1.1818485 
       121.6   -1.1371924     1.569599    1.2089675 
       121.7   -1.1372393    1.5300859    1.3522859 
       121.8   -1.1424018     1.608006    1.0920632 
       121.9   -1.1507267    1.5468644    1.3540903 
         122   -1.1567629    1.5545442    1.3053324 
       122.1   -1.1776004    1.6074281   0.75812916 
       122.2   -1.1903339    1.5152652   0.95159928 
       122.3   -1.2057287    1.4987167   0.94740113 
       122.4   -1.2297705    1.4941748    1.1094205 
       122.5   -1.2464981    1.4717446    1.1222219 
       122.6   -1.2682952     1.458287   0.93149012 
       122.7   -1.2808219     1.477974   0.64942493 
       122.8   -1.3066953    1.4610526   0.62911605 
       122.9    -1.333586    1.3589312    0.7996187 
         123   -1.3604616    1.3897496   0.50229706 
       123.1    -1.390491    1.3845858   0.44630971 
       123.2   -1.4214199    1.3950087    0.4463028 
       123.3   -1.4576839     1.412643   0.28174663 
       123.4   -1.4908005     1.283221   0.78626817 
       123.5   -1.5349321    1.3476292   0.29088613 
       123.6    -1.570898    1.2555729   0.64915963 
       123.7   -1.6041964    1.2895333    0.5325408 
       123.8   -1.6315918    1.2003366   0.67597508 
       123.9   -1.6570426     1.288918   0.19998812 
         124   -1.6710318    1.1568319   0.87275573 
       124.1   -1.6847734    1.2430087   0.63968038 
       124.2   -1.6928445    1.2267812   0.66690237 
       124.3   -1.6896206    1.2755056   0.26434111 
       124.4   -1.6797089    1.1998779   0.59368044 
       124.5   -1.6655221    1.2769646   0.06995661 
       124.6    -1.640797    1.2794916   0.14721794 
       124.7   -1.6116421     1.283012   0.31953021 
       124.8   -1.5734128    1.3024381   0.42358643 
       124.9   -1.5316026    1.3831878   0.32101997 
         125   -1.4799855    1.3802407   0.72584027 
       125.1   -1.4336181    1.4454199   0.72101532 
       125.2   -1.3808803    1.4012908    1.0361876 
       125.3   -1.3345684    1.4470243    0.8704845 
       125.4   -1.2910136    1.4731855   0.70743396 
       125.5   -1.2610551    1.5101597   0.64866212 
       125.6   -1.2300167    1.4887377   0.76879926 
       125.7   -1.2058373    1.5142119   0.73519906 
       125.8   -1.1797648    1.4641989    1.1106401 
       125.9   -1.1550136    1.4709099    1.2031252 
         126   -1.1310625    1.5040969    1.0864377 
       126.1   -1.1175604    1.5609486   0.80112176 
       126.2   -1.1050833    1.5333184   0.94067692 
       126.3   -1.0918579     1.698925   0.40646381 
       126.4   -1.0834628    1.6017973    1.1062216 
       126.5   -1.0754069     1.534462    1.4690384 
       126.6   -1.0747568    1.6820243   0.72947426 
       126.7   -1.0732922     1.596661    1.2685581 
       126.8   -1.0754717    1.5516893    1.5515272 
       126.9   -1.0856818    1.6260618    1.1918559 
         127   -1.0989564    1.5873116    1.3467017 
       127.1   -1.1131829    1.5662626    1.4055416 
       127.2   -1.1254607    1.5825376    1.2928831 
       127.3   -1.1497548    1.5075849     1.711777 
       127.4    -1.174258    1.6672091    1.0217728 
       127.5   -1.2003138    1.5275882      1.34381 
       127.6   -1.2252594    1.5357159    1.1278872 
       127.7   -1.2532801    1.5414741   0.89900477 
       127.8   -1.2835229    1.5380744    0.8654077 
       127.9    -1.316403    1.5489677    1.0377175 
         128   -1.3472292    1.5334578    0.9772439 
       128.1    -1.372557    1.4922007    1.0029496 
       128.2   -1.4036284    1.4770323    1.0496012 
       128.3    -1.425312    1.5012874   0.84937631 
       128.4   -1.4590888     1.522704    0.9194059 
       128.5   -1.4782977    1.5056937   0.89303359 
       128.6   -1.4944995    1.4872547   0.91477868 
       128.7   -1.5108638    1.3549813    1.5732285 
       128.8   -1.5238187     1.401049    1.4861222 
       128.9    -1.535441    1.3833714    1.6252042 
         129   -1.5402552    1.3669209    1.4658419 
       129.1   -1.5454721    1.4139979    1.0315705 
       129.2   -1.5492024     1.460536    0.6692322 
       129.3   -1.5465282    1.4621531   0.60264849 
       129.4   -1.5444195    1.4146984   0.82885874 
       129.5   -1.5426043    1.4228909   0.92031309 
       129.6   -1.5321404    1.3752627    1.0451565 
       129.7   -1.5220047    1.5011948   0.50618219 
       129.8   -1.5158946    1.3714239    1.3728538 
       129.9   -1.4996726    1.3476526    1.5074219 
         130    -1.487292    1.4852333   0.94430014 
       130.1   -1.4757057    1.4640495    1.1402009 
       130.2    -1.457705    1.4699568    1.2155422 
       130.3   -1.4463733    1.4995245    1.0295456 
       130.4   -1.4331835    1.5314551   0.83161324 
       130.5   -1.4197997    1.5008613    1.0604653 
       130.6   -1.4065108    1.4723209    1.2665735 
       130.7   -1.3995555    1.5834223   0.88376118 
       130.8   -1.3945336    1.5137641    1.3623557 
       130.9   -1.3921398    1.4850541     1.402851 
         131   -1.3841626    1.4714649    1.2751803 
       131.1   -1.3784232       1.5149    1.1791641 
       131.2   -1.3716007    1.4577113    1.4644668 
       131.3   -1.3729949    1.5129088    1.4041909 
       131.4   -1.3731422    1.5590591    1.2169803 
       131.5   -1.3728953    1.5948161    1.1313769 
       131.6   -1.3786374     1.501659    1.6858834 
       131.7    -1.375323    1.5505148    1.3040021 
       131.8   -1.3749304    1.5554404    1.2086735 
       131.9    -1.380518    1.5882945    1.2533291 
         132   -1.3898664    1.5695054    1.3178261 
       132.1   -1.3961686    1.5031162    1.0531217 
       132.2   -1.4052211    1.4225908    1.3348171 
       132.3   -1.4142062    1.4850095    1.0752317 
       132.4   -1.4182769    1.5492099   0.69731182 
       132.5   -1.4191733     1.498091    1.0484159 
       132.6   -1.4240321     1.518814   0.95679603 
       132.7   -1.4276612    1.5185814    1.0940192 
       132.8   -1.4359229    1.4423709    1.6066412 
       132.9   -1.4394602    1.5460199     1.061584 
         133   -1.4432081    1.4010788    1.6572801 
       133.1     -1.44976    1.4337874    1.2178645 
       133.2   -1.4596686    1.4754785   0.79491147 
       133.3   -1.4635972     1.472845    0.5759155 
       133.4     -1.46278    1.4325442   0.93363778 
       133.5   -1.4631776    1.3877795    1.1836457 
       133.6   -1.4621136    1.4360434    1.0856397 
       133.7   -1.4569019    1.4631891    0.9969454 
       133.8   -1.4510229    1.4116339     1.121483 
       133.9   -1.4496616    1.4972828   0.85520785 
         134   -1.4441488    1.3892486    1.5713956 
       134.1    -1.434357    1.5997446   0.54424146 
       134.2   -1.4161298    1.4591848    1.2154176 
       134.3   -1.4060233    1.4985924    1.0701028 
       134.4    -1.393098    1.5356631    0.7800778 
       134.5   -1.3800404    1.5363578   0.79894479 
       134.6   -1.3595958    1.4766307    1.0773791 
       134.7   -1.3421211    1.4853323    1.0376532 
       134.8    -1.321458    1.4844042    1.1024132 
       134.9   -1.2979913    1.5465106    1.0746041 
         135   -1.2712847    1.5566224    1.2283414 
       135.1   -1.2444429     1.595808    1.1560819 
       135.2    -1.212935    1.5833433    1.2993822 
       135.3   -1.1890262    1.5969426     1.335185 
       135.4   -1.1481928    1.5751211    1.1825799 
       135.5   -1.1211447    1.6167973    0.9953086 
       135.6   -1.1002382     1.636784     1.228511 
       135.7   -1.0722262    1.6878054    1.0710359 
       135.8   -1.0559428     1.641484    1.1212035 
       135.9    -1.038424    1.6306256    1.1516741 
         136   -1.0257207    1.7019232   0.93818786 
       136.1    -1.015384    1.7042651    1.0124869 
       136.2   -1.0077767    1.5947089    1.5522636 
       136.3   -1.0123481    1.6562557     1.143423 
       136.4    -1.015898    1.6766957    1.0307975 
       136.5     -1.02704     1.692728   0.90182878 
       136.6    -1.044127    1.5878912    1.1433117 
       136.7   -1.0678654    1.7074193   0.51791671 
       136.8   -1.0934714    1.5035657     1.335181 
       136.9   -1.1312208    1.5997363   0.76555568 
         137   -1.1773755    1.4564957    1.2378255 
       137.1   -1.2155124    1.4596687    1.1935623 
       137.2   -1.2601623    1.5381737    0.7355791 
       137.3   -1.3039759    1.4119152    1.1210763 
       137.4   -1.3540053    1.3951548    1.0017402 
       137.5   -1.3964776    1.2715345    1.2724526 
       137.6   -1.4296159    1.2367517    1.1706393 
       137.7   -1.4578127    1.3180633   0.43540193 
       137.8     -1.47592    1.2303234   0.54895996 
       137.9   -1.4920748    1.3455489 -0.016897104 
         138   -1.4989582    1.2195933   0.51563123 
       138.1   -1.4978241    1.2473755   0.31885932 
       138.2   -1.4928215    1.2470248   0.36560725 
       138.3   -1.4797531    1.2173632    0.5085498 
       138.4   -1.4651139    1.2582832   0.34765084 
       138.5   -1.4406144    1.2585893   0.48105642 
       138.6   -1.4070017    1.2708331   0.70703002 
       138.7   -1.3737739     1.340778   0.71634004 
       138.8   -1.3377477    1.3313211   0.81798159 
       138.9    -1.298115    1.3687504   0.66754594 
         139   -1.2604296    1.4965402   0.26467279 
       139.1   -1.2200947    1.4282149   0.81810957 
       139.2    -1.192464    1.4965608   0.54250875 
       139.3   -1.1659934    1.4397375   0.77919158 
       139.4   -1.1514238    1.4871969   0.67330874 
       139.5   -1.1339813    1.5592061   0.56946584 
       139.6   -1.1215969    1.4427316    1.1623989 
       139.7   -1.1070457    1.4240236    1.1971603 
       139.8   -1.0991353    1.5173405   0.77746376 
       139.9    -1.087181    1.5317789   0.68472425 
         140   -1.0758526    1.5589032   0.61691535 
       140.1   -1.0614991    1.4631387   0.76945726 
       140.2   -1.0589367    1.4997336   0.77903344 
       140.3   -1.0518836    1.5648264   0.78156369 
       140.4   -1.0468838    1.4846205    1.0305323 
       140.5    -1.038916    1.4805658   0.80387657 
       140.6   -1.0295895    1.4667181    0.8893302 
       140.7   -1.0236357    1.5131641   0.81946127 
       140.8    -1.017609    1.4175627    1.3281149 
       140.9   -1.0112494    1.5671608   0.98213003 
         141    -1.003937    1.5456546   0.97104192 
       141.1   -0.9967393     1.504098    1.1325517 
       141.2  -0.98601556    1.5258976   0.99999954 
       141.3  -0.97924206    1.4901803    1.1385727 
       141.4  -0.97516379    1.4955892    1.1497777 
       141.5  -0.96676882    1.4936858    1.3050836 
       141.6   -0.9608303    1.4933273    1.2557133 
       141.7  -0.95549902    1.6069437   0.77532091 
       141.8  -0.95413597    1.5431099      1.02677 
       141.9  -0.94468087    1.4885412    1.2007602 
         142  -0.94228325    1.6286452   0.68391738 
[...]
   27130   -1.4342866    1.3980247    1.0749538   0.60052253 
   27140   -1.4449384    1.4781727    1.0066048   0.60084908 
   27150   -1.4553255    1.4714139     1.163283   0.60117005 
   27160   -1.4622299    1.4470823    1.1367904    0.6014473 
   27170   -1.4680407    1.4759295    1.1845935   0.60171363 
   27180   -1.4711306    1.4463904    1.3987025   0.60194735 
   27190   -1.4808267     1.517603   0.95052053   0.60210876 
   27200   -1.4773423    1.4003693    1.3136152    0.6022521 
   27210   -1.4840743    1.4407646   0.94826736   0.60235872 
   27220   -1.4859316    1.3757053    1.1570967   0.60245755 
   27230   -1.4844952    1.4409663    0.8465856   0.60256545 
   27240   -1.4777644    1.3471652    1.3185399   0.60269097 
   27250   -1.4730744    1.4466551   0.71718612   0.60277921 
   27260   -1.4670089    1.4468781   0.91745943   0.60289598 
   27270   -1.4538383     1.476585    1.0585415   0.60303135 
   27280   -1.4349934    1.4517056    1.3523256   0.60315119 
   27290   -1.4244461    1.4806811    1.3152298   0.60320267 
   27300   -1.4145843     1.526169    1.0340388   0.60320072 
   27310   -1.4008662     1.518474   0.95397412    0.6031877 
   27320   -1.3759349    1.4348826    1.4280479   0.60317535 
   27330   -1.3613737    1.5265127    1.2460806   0.60311012 
   27340   -1.3439254     1.499816    1.3906606   0.60298426 
   27350   -1.3268759     1.597839    1.0867228    0.6027837 
   27360   -1.3095069    1.6166717    1.0430299   0.60254832 
   27370   -1.2947671    1.6346263    1.1951836   0.60228972 
   27380   -1.2794474    1.5618452    1.5322416   0.60196409 
   27390   -1.2734477    1.6291453    1.1608051   0.60156656 
   27400   -1.2693182    1.5821969    1.4044016   0.60112974 
   27410   -1.2664865    1.5417247    1.5958058   0.60060149 
   27420   -1.2671025    1.6433724    1.2669979   0.59995648 
   27430   -1.2609047    1.6416255    1.2250593   0.59921972 
   27440   -1.2756888    1.6227747     1.298794   0.59842269 
   27450   -1.2862637    1.6594939    1.1642498   0.59756758 
   27460   -1.3041626    1.6335846    1.2173074   0.59667577 
   27470   -1.3195636     1.534716    1.4572287   0.59571911 
   27480   -1.3415114    1.5368342    1.2867129   0.59465875 
   27490    -1.363773    1.4720592    1.3414021   0.59351076 
   27500   -1.3935954    1.4144043    1.3457554   0.59230743 
   27510   -1.4165339      1.51683   0.57412651   0.59104176 
   27520   -1.4416412    1.4667479   0.65176704   0.58982939 
   27530   -1.4704157    1.4255588   0.78706564   0.58869028 
   27540   -1.4933057    1.3567462    1.0284372   0.58757212 
   27550   -1.5161522    1.3575013   0.69487684   0.58645865 
   27560   -1.5334319    1.3814641   0.38071174   0.58540164 
   27570   -1.5568661    1.4822528  0.054972622   0.58444762 
   27580   -1.5684128    1.3475543   0.60009258   0.58360055 
   27590   -1.5812517    1.2618548   0.81069767   0.58281997 
   27600   -1.5878822    1.3757112   0.37273712   0.58211222 
   27610   -1.5864971    1.2864516   0.74566775   0.58150814 
   27620   -1.5859201    1.4073025   0.18752301   0.58098487 
   27630   -1.5791589    1.2980443    0.8870917    0.5805797 
   27640   -1.5638715     1.307281   0.92974707   0.58021445 
   27650   -1.5445119    1.2747069    1.1460598   0.57987489 
   27660   -1.5234905    1.3638287    1.0173469   0.57953868 
   27670   -1.4917873     1.478517   0.42347149   0.57921211 
   27680   -1.4427808    1.5132752   0.31944288   0.57894724 
   27690   -1.3969413    1.4457746   0.85603693   0.57876033 
   27700   -1.3458001    1.4922724   0.71245716   0.57859765 
   27710    -1.292366    1.4726964    1.0020443   0.57846754 
   27720    -1.242982    1.5614105   0.79869688   0.57835001 
   27730   -1.1972252    1.4860767    1.3050256   0.57823987 
   27740   -1.1553414     1.492153    1.4477716    0.5780725 
   27750   -1.1249764    1.5874191   0.99569865   0.57782401 
   27760    -1.091712    1.5309652    1.1421016   0.57754813 
   27770   -1.0673426     1.602915   0.96565825   0.57726055 
   27780   -1.0504434    1.5670145    1.3559794   0.57696658 
   27790   -1.0460573    1.6911425     0.941981   0.57663372 
   27800   -1.0361026    1.6670327   0.97306301   0.57626688 
   27810   -1.0315261    1.7052549   0.59241517   0.57586233 
   27820   -1.0337201    1.6547462   0.91016109   0.57548297 
   27830   -1.0329653     1.567673    1.3601202   0.57509779 
   27840   -1.0426654    1.5476525    1.3035775   0.57467424 
   27850   -1.0543869    1.5653282    1.2755358   0.57424179 
   27860   -1.0776281    1.6562671   0.78912494   0.57379573 
   27870   -1.0976068    1.6036373    1.0025483   0.57335495 
   27880   -1.1165408    1.6308917   0.78271219    0.5729049 
   27890   -1.1394119    1.5307679    1.0345655   0.57246454 
   27900   -1.1630275    1.4142316    1.5190416   0.57201052 
   27910    -1.183641    1.5409439   0.84892599   0.57148963 
   27920   -1.2099623    1.5103349   0.94873936   0.57099185 
   27930   -1.2302504    1.4813412    1.0689073   0.57052282 
   27940   -1.2589543    1.5335232   0.76040459   0.57006354 
   27950   -1.2826736    1.5323202    0.6005579   0.56963575 
   27960   -1.3045483    1.4984573   0.71873042   0.56925445 
   27970   -1.3229574    1.3952239    1.2600389   0.56888269 
   27980   -1.3395986    1.3973493    1.0571519   0.56846988 
   27990    -1.359638    1.5212212   0.35776211   0.56806737 
   28000   -1.3696329    1.3951361   0.82830157   0.56775154 
   28010   -1.3838123    1.4001705   0.70646064   0.56748768 
   28020   -1.3921089    1.3997979   0.72330003   0.56729426 
   28030   -1.3975623    1.3822186   0.64154631   0.56715108 
   28040   -1.3995166    1.4303847   0.26222349   0.56709072 
   28050   -1.4001062    1.4063052   0.72391727   0.56717697 
   28060   -1.4008826    1.4059832    1.0232464   0.56732994 
   28070   -1.4003931    1.4337677    1.0142534     0.567499 
   28080   -1.3905154     1.322383    1.6470298   0.56765619 
   28090   -1.3859809    1.5148972   0.53025495     0.567755 
   28100   -1.3706736    1.4326167   0.90123355   0.56790681 
   28110   -1.3552639    1.3804236    1.3011291    0.5680693 
   28120   -1.3310041    1.4431992   0.88751432   0.56822091 
   28130   -1.3003083    1.3411116    1.3722969   0.56841229 
   28140   -1.2644899    1.4996848   0.64835175   0.56858652 
   28150   -1.2086053    1.3884129     1.309607   0.56879872 
   28160   -1.1521123    1.4827875   0.95189319   0.56901905 
   28170   -1.0919013    1.5361202    1.0787924   0.56925546 
   28180   -1.0261207    1.6579839   0.78298674   0.56944864 
   28190  -0.96112222    1.5896838    1.3617877   0.56962535 
   28200  -0.90792784     1.701578   0.96046467   0.56975531 
   28210  -0.86028433    1.7267088    1.0959446   0.56986879 
   28220  -0.82345472    1.6238824    1.8271242   0.56996044 
   28230  -0.81158552     1.727191    1.4067699     0.569936 
   28240  -0.79930868    1.7479006     1.158372   0.56980598 
   28250  -0.79553765    1.7444822    1.0989547   0.56962732 
   28260  -0.79968293    1.6812017    1.5794173   0.56941906 
   28270  -0.80861689    1.7249471    1.5008532   0.56909682 
   28280  -0.82685251    1.7021575    1.5860916   0.56864782 
   28290   -0.8483669     1.689224    1.4750794   0.56807444 
   28300  -0.87650089    1.6491282    1.4883889   0.56741484 
   28310  -0.91060602    1.6077732    1.5356796    0.5666665 
   28320  -0.94794758    1.6995793   0.88667325   0.56582037 
   28330  -0.98316906    1.5938671   0.91999629   0.56497724 
   28340   -1.0263228     1.538798    1.1195055   0.56415437 
   28350   -1.0733465    1.5159161    1.2043893   0.56331848 
   28360   -1.1026625    1.5976855   0.84111393   0.56245588 
   28370   -1.1405123    1.5881265   0.83187386   0.56158065 
   28380   -1.1772679    1.5727291    0.9338679   0.56070011 
   28390   -1.2081173    1.5430817   0.90868512   0.55978806 
   28400   -1.2362878    1.4633921    1.0223791   0.55885482 
   28410   -1.2572841     1.514851   0.64020514   0.55791096 
   28420   -1.2802329    1.4156753   0.99647654   0.55700344 
   28430   -1.2917121    1.3211827    1.2018615   0.55608003 
   28440   -1.3022117    1.2960227     1.000339   0.55512831 
   28450   -1.3093586    1.3172104    0.9481334   0.55419998 
   28460   -1.3088811    1.3991853   0.56089581   0.55329401 
   28470   -1.3037093    1.3820259     0.628209   0.55244482 
   28480   -1.2952949    1.3435279     0.856734   0.55166558 
   28490   -1.2922713    1.5272756   0.17910756   0.55095892 
   28500   -1.2809947    1.4185907   0.76483993   0.55036101 
   28510    -1.269622    1.4683777   0.46414079   0.54982056 
   28520    -1.258887    1.4370148    0.5900318   0.54937533 
   28530   -1.2469793    1.4583747   0.49477208   0.54899908 
   28540   -1.2282222    1.5136144   0.31579189   0.54869492 
   28550   -1.2077185    1.4377167   0.68747563   0.54848648 
   28560     -1.18661    1.4148368   0.92964801   0.54836298 
   28570   -1.1668622    1.4362497   0.98131375   0.54828363 
   28580   -1.1434434    1.5179568   0.57320671   0.54821969 
   28590   -1.1230328    1.3943817    1.1772948   0.54822081 
   28600   -1.0975628    1.5019536   0.89350808   0.54822611 
   28610   -1.0702105    1.5483119   0.76138887   0.54824408 
   28620   -1.0444271    1.5248517    0.8180213   0.54829036 
   28630    -1.020777    1.5763179   0.60852289   0.54838084 
   28640   -1.0006481    1.5488465   0.93525383   0.54853151 
   28650  -0.97479646     1.512167    1.0449287   0.54870747 
   28660  -0.95707266     1.558528   0.84366687   0.54888114 
   28670  -0.93825051    1.5854624    0.7575286   0.54909107 
   28680  -0.92144547    1.5241614    1.2405549   0.54934765 
   28690  -0.90331371    1.5001197    1.5507344   0.54956997 
   28700  -0.89074401    1.5604669    1.2737633   0.54971899 
   28710  -0.87632618    1.5544732    1.2977828   0.54981494 
   28720  -0.86788676    1.5871207   0.99336401    0.5498694 
   28730  -0.85955592    1.5715716     0.955888    0.5499456 
   28740  -0.85606715    1.5548057    1.3350739   0.55004243 
   28750  -0.85003734    1.5613985    1.5550478   0.55009858 
   28760  -0.84948784    1.6770264   0.99871409   0.55007531 
   28770  -0.84500422    1.6384085   0.93510292   0.55001658 
   28780  -0.85317526     1.653521   0.79529814   0.54998283 
   28790  -0.87311413    1.6004809    1.0910975   0.54997558 
   28800  -0.89399129    1.5921787   0.93596503    0.5499319 
   28810  -0.92663892    1.5616358   0.90482276    0.5498926 
   28820  -0.96371102    1.5619115    0.8219678   0.54987541 
   28830   -1.0156031    1.5586839   0.78075178    0.5498882 
   28840   -1.0672724    1.3973243    1.1165255   0.54992896 
   28850   -1.1146913    1.5422215   0.14051192   0.54998241 
   28860   -1.1654833    1.5033641   0.28576899   0.55016252 
   28870    -1.211765     1.491086   0.47126885   0.55045451 
   28880   -1.2517528     1.462897   0.59352361   0.55083183 
   28890   -1.2881899    1.3507731   0.82278375   0.55126599 
   28900   -1.3141133    1.3924826   0.48195813   0.55175319 
   28910   -1.3403355    1.3619378   0.64041395   0.55234315 
   28920   -1.3572767    1.3182313   0.74709594   0.55302048 
   28930   -1.3677208    1.3386971   0.66528865   0.55375734 
   28940   -1.3739151    1.3388235    0.6378711   0.55455508 
   28950   -1.3761963    1.3384392   0.66835636   0.55542217 
   28960   -1.3698868    1.2943312    1.0317184   0.55635624 
   28970   -1.3662385    1.4076412   0.53316492   0.55732457 
   28980   -1.3572185    1.4339253   0.72742264    0.5583539 
   28990   -1.3398941     1.379261    1.0954987   0.55942058 
   29000   -1.3224105    1.4862756   0.57651926   0.56050066 
   29010    -1.304928    1.3610677    1.0852922   0.56164977 
   29020   -1.2774436    1.4733327   0.52238733   0.56282236 
   29030   -1.2455733     1.423457   0.77075014   0.56407445 
   29040   -1.2221512    1.4243514    1.0685372   0.56539092 
   29050   -1.1875842    1.4603916     1.035785   0.56672684 
   29060   -1.1564004    1.5119744   0.82978984   0.56807874 
   29070    -1.119569     1.490302    1.1875377   0.56945262 
   29080   -1.0872129    1.4916813    1.1994048   0.57081494 
   29090   -1.0577112    1.4889141    1.3420307   0.57215909 
   29100   -1.0239183    1.5859432    1.1499119   0.57347436 
   29110  -0.99055638     1.629823    1.1791865   0.57477142 
   29120  -0.96437317    1.5412066    1.5816922   0.57605612 
   29130  -0.94030509    1.5870276    1.5507605   0.57729445 
   29140  -0.92753175    1.7106188    1.0121572    0.5784862 
   29150  -0.91965034    1.7211583   0.94190164   0.57969114 
   29160  -0.91926997     1.751732   0.95590679   0.58090562 
   29170  -0.92685966    1.6615267    1.5692757   0.58210533 
   29180  -0.93157803    1.5771984    1.9358443   0.58320105 
   29190  -0.94674616    1.7152499     1.068749   0.58417756 
   29200    -0.968614    1.6682581    1.3699766    0.5851356 
   29210  -0.99955908    1.7264162    1.2386386   0.58600482 
   29220   -1.0312161     1.639842    1.4916708   0.58679216 
   29230    -1.080149     1.674518    1.0167491   0.58750505 
   29240   -1.1303823    1.6621824    0.8349149   0.58820071 
   29250   -1.1775438    1.5414792    1.5285266    0.5889113 
   29260   -1.2255302    1.6322806   0.91925103   0.58953007 
   29270   -1.2691683    1.6165512   0.68914164   0.59011998 
   29280   -1.3111096    1.4767689    1.2001766   0.59075426 
   29290   -1.3459854    1.5193233    1.0619986   0.59139705 
   29300   -1.3708734    1.5438699   0.94410721   0.59203294 
   29310   -1.3940448    1.5673144   0.90220174   0.59265557 
   29320   -1.4056664    1.4455155    1.3001309   0.59325048 
   29330   -1.4207591    1.4706695    1.0678275   0.59379793 
   29340   -1.4255262    1.5167836   0.87111809   0.59431856 
   29350   -1.4336761    1.3940998    1.5039186   0.59483589 
   29360   -1.4400374    1.5063696    1.0961616   0.59529944 
   29370   -1.4424252    1.5432088   0.89450711   0.59571668 
   29380   -1.4438905    1.4410349    1.2763158    0.5961265 
   29390    -1.443419    1.3897358    1.4441665   0.59650022 
   29400    -1.442533    1.5518673   0.72147805   0.59682439 
   29410    -1.441589    1.4491148     1.124022   0.59717267 
   29420   -1.4388724     1.439921   0.99074168   0.59752496 
   29430   -1.4429268    1.4519841   0.94460902   0.59791958 
   29440   -1.4387795     1.411589    1.2026154   0.59833969 
   29450   -1.4372215    1.4653451    1.2407554   0.59875438 
   29460   -1.4320715    1.4336115     1.672204    0.5991388 
   29470   -1.4270384    1.4865404    1.4499456   0.59941318 
   29480   -1.4196134    1.4074909    1.8486934   0.59960451 
   29490   -1.4170627    1.4636209    1.5374111   0.59969515 
   29500   -1.4035434    1.4015847    1.7794065   0.59967692 
   29510   -1.4018731     1.502828    1.3342558   0.59955199 
   29520   -1.3890961    1.4558627    1.6683471   0.59933747 
   29530   -1.3816066    1.4505541    1.8331215   0.59898962 
   29540   -1.3722977    1.4524497    1.9272448   0.59847343 
   29550   -1.3589688    1.5780437    1.1272212    0.5978038 
   29560   -1.3513018     1.612174   0.77276763   0.59709698 
   29570   -1.3406291    1.5023518    1.3528394   0.59638448 
   29580   -1.3230068    1.6173317   0.74784695   0.59560628 
   29590   -1.3084954    1.5258642    1.0360159   0.59483287 
   29600    -1.294116    1.5697339   0.88268024   0.59406318 
   29610   -1.2824693    1.5681594     1.168664   0.59329835 
   29620   -1.2693425    1.5649805    1.2288245   0.59247189 
   29630   -1.2506933    1.5584963    1.3202647   0.59155993 
   29640   -1.2369609      1.64254   0.89948058   0.59058316 
   29650   -1.2205102    1.5304111    1.1922437   0.58957824 
   29660      -1.2072    1.5765926   0.89471099   0.58852892 
   29670   -1.1953307    1.6286536    0.8192619    0.5874869 
   29680   -1.1775343     1.530986    1.2314133   0.58645363 
   29690   -1.1669491    1.5099763    1.4965888   0.58539074 
   29700   -1.1542137    1.5705467    1.2057105   0.58426423 
   29710   -1.1451505    1.5793147    1.1255734   0.58310051 
   29720   -1.1314117    1.6215383    1.0095914   0.58189388 
   29730   -1.1226947    1.5837465    1.3747504   0.58065557 
   29740   -1.1125341    1.5555248    1.4757431   0.57933066 
   29750   -1.1068405    1.5790466    1.2026016   0.57790725 
   29760   -1.0959903    1.6380007   0.76282178   0.57640837 
   29770   -1.0865626    1.5293581    1.1178356   0.57490806 
   29780   -1.0826411    1.5070304    1.1340366   0.57338751 
   29790   -1.0768295    1.5277291   0.93903539   0.57182995 
   29800   -1.0699469     1.611345    0.4830159   0.57028574 
   29810   -1.0619905    1.5140093    1.0656035    0.5688125 
   29820   -1.0588715    1.4980862    1.1491682   0.56733304 
   29830   -1.0590288    1.5959027   0.70569367   0.56582897 
   29840   -1.0561771    1.5411214    1.0467495   0.56433862 
   29850   -1.0508579    1.5149169    1.1665753   0.56282013 
   29860   -1.0492132    1.5649567    1.1050002   0.56128704 
   29870   -1.0512934     1.598092   0.99385553   0.55973419 
   29880   -1.0593745    1.4873371    1.3463507   0.55813103 
   29890   -1.0581674    1.5815917   0.81374707     0.556461 
   29900   -1.0644165    1.4999584      1.07795   0.55480983 
   29910    -1.068256     1.531469   0.92452987   0.55315457 
   29920   -1.0714988    1.4624683    1.4083632   0.55149269 
   29930   -1.0820282     1.506509    1.1687081   0.54977657 
   29940   -1.0864142    1.5326705   0.77289197   0.54802253 
   29950   -1.0890298    1.5213437   0.52871394   0.54630314 
   29960   -1.0963067    1.4483694   0.82721035   0.54466018 
   29970   -1.0995074    1.4169501   0.85391595   0.54303854 
   29980   -1.1022442    1.4517211   0.56793667   0.54145484 
   29990   -1.0983837    1.3600352   0.90920989   0.53995329 
   30000   -1.0993582    1.4014211   0.71747791   0.53851245 
Loop time of 5.5053 on 8 procs for 30000 steps with 125 atoms

Performance: 4708187.804 tau/day, 5449.291 timesteps/s
113.8% CPU use with 1 MPI tasks x 8 OpenMP threads

MPI task timing breakdown:
Section |  min time  |  avg time  |  max time  |%varavg| %total
---------------------------------------------------------------
Pair    | 1.7791     | 1.7791     | 1.7791     |   0.0 | 32.32
Neigh   | 0.056772   | 0.056772   | 0.056772   |   0.0 |  1.03
Comm    | 0.14283    | 0.14283    | 0.14283    |   0.0 |  2.59
Output  | 0.08642    | 0.08642    | 0.08642    |   0.0 |  1.57
Modify  | 3.4171     | 3.4171     | 3.4171     |   0.0 | 62.07
Other   |            | 0.02305    |            |       |  0.42

Nlocal:        125.000 ave         125 max         125 min
Histogram: 1 0 0 0 0 0 0 0 0 0
Nghost:        1749.00 ave        1749 max        1749 min
Histogram: 1 0 0 0 0 0 0 0 0 0
Neighs:        12841.0 ave       12841 max       12841 min
Histogram: 1 0 0 0 0 0 0 0 0 0

Total # of neighbors = 12841
Ave neighs/atom = 102.72800
Neighbor list builds = 1043
Dangerous builds = 0

variable avedens equal f_aves[1]
variable avetemp equal f_aves[2]
variable avepress equal f_aves[3]
variable errdens equal sqrt(f_aves[4]-f_aves[1]*f_aves[1])
variable errtemp equal sqrt(f_aves[5]-f_aves[2]*f_aves[2])
variable errpress equal sqrt(f_aves[6]-f_aves[3]*f_aves[3])

print "Averages"
Averages
print "--------"
--------
print "Density: ${avedens}"
Density: 0.57573351680649
print "Stderr: ${errdens}"
Stderr: 0.0289478834077522
print "Temperature: ${avetemp}"
Temperature: 1.49919552451372
print "Stderr: ${errtemp}"
Stderr: 0.107109702007908
print "Pressure: ${avepress}"
Pressure: 1.00340978660981
print "Stderr: ${errpress}"
Stderr: 0.353150782864951
