
### SPECIFY THE NUMBER OF PRODUCTION STEPS ###
variable Nprod equal 30000

### ASSIGN ATOMIC VELOCITIES ###
velocity all create ${T} 12345 dist gaussian rot yes mom yes
velocity all create 1.5 12345 dist gaussian rot yes mom yes

### SPECIFY ENSEMBLE ###
timestep ${timestep}
timestep 0.005
fix nve all nve

### THERMODYNAMIC OUTPUT CONTROL ###
thermo_style custom time etotal temp press
thermo 10

### RECORD TRAJECTORY ###
dump traj all custom 1000 traj.dump id x y z

### SPECIFY TIMESTEP ###
variable n_steps equal floor(50/${timestep})
variable n_steps equal floor(50/0.005)
timestep ${timestep}
timestep 0.005

### RUN SIMULATION TO MELT CRYSTAL ###
run ${n_steps}
run 10000
Last active /omp style is pair_style lj/cut/omp
Neighbor list info ...
  update every 1 steps, delay 10 steps, check yes
  max neighbors/atom: 2000, page size: 100000
  master list distance cutoff = 4.5
  ghost atom cutoff = 4.5
  binsize = 2.25, bins = 3 3 3
  1 neighbor lists, perpetual/occasional/extra = 1 0 0
  (1) pair lj/cut/omp, perpetual
      attributes: half, newton on, omp
      pair build: half/bin/atomonly/newton/omp
      stencil: half/bin/3d/newton
      bin: standard
Per MPI rank memory allocation (min/avg/max) = 10.63 | 10.63 | 10.63 Mbytes
Time TotEng Temp Press 
           0   -3.0327711          1.5   0.89516323 
        0.05      -3.0079   0.79623234    4.7114462 
         0.1   -3.0049827    0.9524769    4.0520563 
        0.15   -3.0035442    1.1511051    2.9988302 
         0.2   -3.0003496    1.4586016    1.3486842 
        0.25   -2.9989408    1.4282177    1.4457761 
         0.3   -3.0015089    1.2848246     2.312849 
        0.35   -3.0026372    1.3339549    2.1881461 
         0.4   -3.0023668    1.2543613    2.7844076 
        0.45   -3.0017563    1.3087583    2.7134252 
         0.5   -3.0043768    1.2894639    2.8218189 
        0.55   -3.0014282    1.2732229     2.798512 
         0.6   -3.0042656    1.2008347    3.1014137 
        0.65   -3.0045379    1.2972337    2.5395009 
         0.7   -3.0042197    1.3258946    2.2545443 
        0.75   -3.0020946     1.267651    2.6333217 
         0.8   -3.0021937    1.3123379    2.4957283 
        0.85   -2.9991372    1.3303523    2.3596944 
         0.9   -2.9955981    1.3116449    2.5909356 
        0.95   -2.9932423     1.244794    3.0467113 
           1   -2.9930309    1.3085122    2.7779209 
        1.05   -2.9970844    1.2358775    3.2706403 
         1.1   -2.9956366    1.2422653    3.1934154 
        1.15   -2.9966969    1.3024755    2.8236328 
         1.2   -2.9963488    1.2213937    3.2360881 
        1.25   -2.9960243    1.2655879    2.9790068 
         1.3   -2.9964096    1.2100037    3.2578778 
        1.35   -2.9951818    1.3654117    2.3489986 
         1.4   -2.9967882    1.3251898    2.6181316 
        1.45   -2.9939879    1.2542408    3.1330543 
         1.5   -2.9927022    1.3280358    2.7297402 
        1.55    -2.992833    1.2160333    3.2655686 
         1.6   -2.9961248    1.3017644    2.7564727 
        1.65   -2.9972538    1.1955827     3.330713 
         1.7   -2.9985987    1.2902357    2.8155753 
        1.75   -2.9957011    1.2384703    3.1532149 
         1.8   -2.9941057    1.2408663    3.1907315 
        1.85     -2.99254    1.3132051    2.8236203 
         1.9   -2.9968272     1.281769    2.9828033 
        1.95   -2.9960064    1.2630005    3.1219225 
           2   -2.9964382    1.2310421    3.1519342 
        2.05   -2.9956254    1.3119092    2.5911108 
         2.1   -2.9969347    1.2712356     2.848251 
        2.15   -2.9949253    1.2967405    2.7481539 
         2.2   -2.9988829    1.3320912    2.5205869 
        2.25   -2.9986855    1.1422359    3.5517654 
         2.3   -3.0011646    1.2254239    3.2305051 
        2.35   -3.0002812    1.1518855    3.6654546 
         2.4   -2.9997532    1.2490252    3.1996493 
        2.45    -2.997974    1.2634174    3.1487508 
         2.5   -2.9971522     1.162694    3.7016382 
        2.55     -2.99671    1.2724852    3.0476262 
         2.6   -2.9975085    1.2762858     3.006088 
        2.65   -2.9957278     1.203284    3.4299688 
         2.7   -2.9976207    1.2348592    3.2770705 
        2.75   -2.9994826    1.1217309    3.8982708 
         2.8   -3.0011451     1.235825    3.3218031 
        2.85   -2.9975277    1.2420309    3.2205605 
         2.9   -2.9985999    1.3376681    2.5568904 
        2.95   -2.9985712     1.325774     2.530174 
           3    -2.997451    1.3176204    2.5097076 
        3.05   -2.9966062    1.3005086    2.5499812 
         3.1   -2.9975191    1.1924915    3.0960861 
        3.15   -2.9975133    1.3015336    2.6506887 
         3.2    -2.998195     1.166941    3.5323509 
        3.25   -2.9956768    1.2696852    2.9440944 
         3.3   -2.9989928    1.3206616    2.5538577 
        3.35   -2.9991855    1.2882127    2.7432502 
         3.4   -2.9973869    1.2427688     2.921704 
        3.45   -2.9979007    1.3309032    2.4895497 
         3.5   -2.9988646    1.2452388    3.1007397 
        3.55   -2.9981309    1.2268495    3.1579227 
         3.6   -2.9958427    1.2291762    3.1471639 
        3.65   -2.9993931    1.2361341     3.133627 
         3.7   -2.9978993    1.2325415    3.2191239 
        3.75   -2.9989025    1.2457815    3.0897741 
         3.8    -3.000115    1.2704993    2.7730522 
        3.85    -2.999425    1.3153945    2.4894807 
         3.9    -2.998037    1.1710684     3.356613 
        3.95   -2.9989712    1.2224058    3.0037636 
           4   -2.9982637    1.3302989    2.3055416 
        4.05   -2.9960804    1.1658158    3.2515756 
         4.1   -2.9940744    1.2673167    2.8194996 
        4.15   -2.9948971    1.1545053    3.5486295 
         4.2   -2.9953257    1.2991407    2.7787052 
        4.25   -2.9979191    1.2288419      3.02723 
         4.3   -2.9960098      1.37753    2.1831397 
        4.35   -2.9972606    1.2817187    2.8845422 
         4.4   -3.0014199     1.147989    3.7858341 
        4.45   -2.9986484    1.2017891    3.5408651 
         4.5   -2.9981366    1.1838207    3.5642756 
        4.55   -2.9970794    1.3100699    2.7890774 
         4.6   -2.9967204    1.2705052    2.8607332 
        4.65   -2.9980388    1.3438938    2.4474846 
         4.7   -3.0007779    1.3202593    2.5456991 
        4.75   -2.9993054    1.3114381    2.4989687 
         4.8   -2.9988602    1.2293001    2.9966223 
        4.85   -3.0003537    1.1829348    3.3462298 
         4.9   -2.9992721     1.295269    2.8039291 
        4.95    -2.999541    1.2544276    2.9844726 
           5   -2.9970038    1.2387868    3.1180539 
        5.05    -2.994804    1.1810102    3.3899323 
         5.1   -2.9943991    1.1626599    3.4365276 
        5.15   -2.9917429    1.2582406    2.9644498 
         5.2   -2.9924391    1.2552378    3.0837837 
        5.25   -2.9947947    1.2665922    3.1545353 
         5.3   -2.9933254    1.3045166    2.9955534 
        5.35   -2.9947799    1.3189575    2.7874633 
         5.4   -2.9961115    1.3186008    2.6101317 
        5.45   -2.9970724     1.331194    2.6048946 
         5.5   -2.9961449     1.258026    3.1132529 
        5.55   -2.9984344    1.2876374    2.9750174 
         5.6   -2.9978091    1.2607607    3.0717741 
        5.65   -2.9951506    1.2230523    3.1885435 
         5.7   -2.9956668    1.2626328    3.0363382 
        5.75   -2.9977172    1.2785618     3.112149 
         5.8   -2.9940209    1.1877791    3.5206061 
        5.85   -2.9934209    1.1326976    3.6687734 
         5.9   -2.9945971    1.2102121     3.233064 
        5.95   -2.9935571     1.234678    3.1017506 
           6   -2.9922592     1.217205    3.1571827 
        6.05   -2.9964305    1.2558924    2.9493733 
         6.1   -2.9993262    1.2931024    2.7068562 
        6.15   -3.0006727    1.3542157    2.3177332 
         6.2   -3.0000737    1.2923542    2.6548742 
        6.25   -2.9998254    1.2567885    2.9564498 
         6.3    -2.997893    1.2168298    3.0718396 
        6.35   -2.9978862     1.296808    2.6104717 
         6.4   -2.9962619    1.2714192    2.9100688 
        6.45   -2.9959914    1.2725004    2.9251321 
         6.5   -2.9962529    1.2959059    2.7106471 
        6.55   -2.9967492    1.2065123    3.2233202 
         6.6   -2.9970782    1.2584545    3.1454426 
        6.65   -2.9952289    1.1908541    3.6863026 
         6.7   -2.9967032    1.2851609    3.2690648 
        6.75   -2.9935152    1.2146796    3.5142121 
         6.8   -2.9939687     1.321758    2.8326562 
        6.85   -2.9949566    1.2622086    3.1091833 
         6.9   -2.9949376    1.1854071    3.5331688 
        6.95   -2.9960876    1.2660673    3.0623902 
           7   -2.9973753    1.2677216    3.0208428 
        7.05   -3.0009654     1.233535    3.1761522 
         7.1   -2.9995379    1.2400158    3.2368841 
        7.15   -3.0019989    1.2287329    3.2136009 
         7.2   -3.0012287    1.3456831    2.4983912 
        7.25   -2.9991878     1.325756    2.5134744 
         7.3   -2.9997656    1.3404896    2.4194919 
        7.35   -2.9981237    1.2813533    2.6827923 
         7.4    -2.997573    1.3350003    2.3449877 
        7.45   -2.9973478    1.2550862    2.8287759 
         7.5   -2.9946572    1.3536787    2.4308921 
        7.55   -2.9981195    1.2591672     2.961066 
         7.6   -2.9964367    1.3867303    2.3021493 
        7.65   -2.9983931    1.2663128     2.950775 
         7.7   -2.9993935    1.2576737    3.1443585 
        7.75   -2.9983845    1.2310243    3.3191694 
         7.8   -2.9965411    1.2289892    3.3462256 
        7.85   -2.9965573    1.1945809    3.4053397 
         7.9   -2.9957261    1.3303933    2.5192205 
        7.95   -2.9966714    1.3433244    2.3887539 
           8   -2.9962255    1.2861011    2.5882709 
        8.05   -2.9972742     1.340404    2.2707362 
         8.1   -2.9941441    1.2342639    2.9700422 
        8.15   -2.9972256    1.2313438    3.0751977 
         8.2   -2.9979747    1.2167028     3.241278 
        8.25   -2.9994335    1.4125436    2.1647891 
         8.3   -2.9992768    1.2421204    3.0350768 
        8.35   -2.9981856     1.293758    2.9069987 
         8.4   -2.9964299     1.188794    3.5192543 
        8.45   -2.9967512    1.1619936    3.6703907 
         8.5   -2.9971383    1.3146135    2.8400849 
        8.55   -2.9941089    1.1535102    3.6820599 
         8.6    -2.994356    1.2751941    2.9955807 
        8.65   -2.9947196    1.1794171    3.4363147 
         8.7    -2.996977    1.1578426     3.557856 
        8.75   -2.9982724    1.2286626    3.1179184 
         8.8    -2.999654    1.2814147    2.7742822 
        8.85   -2.9995957     1.254584    2.8509728 
         8.9    -2.997425     1.353825    2.2813149 
        8.95    -2.995813    1.2828049    2.7506897 
           9   -2.9966559    1.2595775    2.9211381 
        9.05   -2.9965226    1.2189114     3.137156 
         9.1   -2.9953122    1.1755302    3.3844744 
        9.15   -2.9964458    1.2377281    2.9672721 
         9.2   -2.9972219    1.3721636    2.2327911 
        9.25   -2.9988977    1.3290151    2.5832017 
         9.3   -2.9952291    1.2074615     3.372871 
        9.35   -2.9938952    1.2193756    3.2849224 
         9.4   -2.9943892    1.2417986    3.0119234 
        9.45   -2.9941008    1.3033981    2.7033925 
         9.5   -2.9962549    1.2423744    3.0259439 
        9.55   -2.9987197    1.2869637    2.7262092 
         9.6   -2.9979888     1.257617    2.8892262 
        9.65   -2.9969105    1.3008252    2.8339424 
         9.7   -2.9953613    1.1698602    3.6333412 
        9.75   -2.9968803    1.2595094    3.1560065 
         9.8   -2.9928786    1.2130218    3.3060595 
        9.85   -2.9938808    1.2390083    3.2004878 
         9.9   -2.9948982    1.2177364    3.3914207 
        9.95   -2.9951251    1.2546299    3.2020988 
          10   -2.9981571    1.2510703    3.1179045 
       10.05   -2.9990433    1.2732898    2.8435143 
        10.1   -2.9988706    1.2677257    2.8456016 
       10.15   -2.9970111    1.2976617    2.6867612 
        10.2   -2.9997592    1.3425536    2.5873106 
       10.25   -3.0027994    1.3060483    2.8808334 
        10.3   -2.9991147    1.2429122    3.1557244 
       10.35   -2.9971849    1.2732895    2.9425468 
        10.4   -2.9954105    1.3582687    2.4982759 
       10.45   -2.9967568    1.1415371    3.6063761 
        10.5   -2.9971862    1.3096962    2.7239761 
       10.55   -2.9941139    1.1582239    3.4667562 
        10.6    -2.999707     1.364572    2.3420249 
       10.65   -3.0006917    1.2455331    2.9757281 
        10.7   -3.0017337    1.3471166    2.5213815 
       10.75    -2.996878    1.1906166     3.454424 
        10.8   -2.9966175    1.2633092    3.0820429 
       10.85   -2.9993222    1.3315675    2.6306041 
        10.9   -2.9961095    1.3103284    2.8301925 
       10.95   -2.9994294    1.2502725     3.133741 
          11   -2.9985673    1.3246574    2.6927586 
       11.05   -2.9972236    1.2355355    3.0805879 
        11.1   -2.9975258    1.1946531    3.2416436 
       11.15   -3.0004915     1.239909    3.1255249 
        11.2   -3.0017705    1.1810593    3.4348679 
       11.25   -2.9979446    1.2620028    2.9666217 
        11.3   -2.9971287     1.055974     4.036633 
       11.35   -2.9983652    1.2094334     3.170625 
        11.4   -3.0012817    1.3754961    2.1099498 
       11.45   -3.0016897    1.3040636    2.6427213 
        11.5   -3.0011005    1.2488998    3.1373518 
       11.55   -2.9990987    1.2327302    3.1264109 
        11.6   -2.9990662    1.2702144    2.8352669 
       11.65   -3.0020381    1.3062583    2.5605997 
        11.7   -3.0012438    1.2546431    2.7839388 
       11.75   -3.0017257     1.245798     2.842041 
        11.8   -3.0011597    1.2419845    2.8239089 
       11.85   -3.0002881    1.3342513    2.4054838 
        11.9    -3.000212    1.2780657    2.7286821 
       11.95   -3.0002925    1.2631121     2.792328 
          12   -3.0026021    1.3167406    2.5275221 
       12.05   -3.0010913    1.3440249     2.563965 
        12.1   -3.0013359    1.2626985    3.1942579 
       12.15   -2.9992483    1.2749574    3.1372524 
        12.2   -2.9966371    1.3158191    2.8366818 
       12.25   -2.9977538    1.2451789    3.1581151 
        12.3   -2.9976996    1.2647254    3.0241173 
       12.35   -2.9994483    1.2805788    2.9799099 
        12.4    -2.996796    1.1927486     3.391764 
       12.45   -3.0008669    1.2626279    2.9722925 
        12.5    -2.998917    1.3329021     2.568014 
       12.55   -3.0000625    1.3202762    2.6569653 
        12.6   -2.9984916     1.336272    2.5021481 
       12.65   -2.9956333    1.3834177    2.1132662 
        12.7   -2.9948288    1.3258327    2.4004644 
       12.75   -2.9991413    1.2830354    2.8031176 
        12.8   -2.9988501    1.1758129    3.4272761 
       12.85   -2.9939995    1.2063259    3.1859151 
        12.9   -2.9962712    1.2789412    2.7123142 
       12.95    -2.998103    1.1660892    3.2416748 
          13    -3.001667    1.3033897    2.4801455 
       13.05   -2.9978329    1.2401174    2.8255357 
        13.1   -2.9980049    1.2414257    2.9273356 
       13.15   -3.0000852     1.320813    2.7246396 
        13.2   -2.9973575    1.1847755    3.5585162 
       13.25   -2.9976318    1.1522627    3.6711974 
        13.3   -2.9986584    1.2882738    2.9702094 
       13.35   -2.9949672    1.2497737    3.2022355 
        13.4   -2.9952317      1.27491    3.1323363 
       13.45   -2.9949243    1.2686189    3.0816316 
        13.5   -2.9981154    1.2817854     2.805517 
       13.55   -2.9969762    1.2809715    2.8504723 
        13.6   -2.9965081    1.2893887    2.9373665 
       13.65   -2.9987885    1.3249622    2.7387037 
        13.7   -3.0023028    1.2279783    3.1150245 
       13.75   -2.9972334    1.2784195    2.8838136 
        13.8   -2.9934293    1.1872851    3.3313618 
       13.85   -2.9962681    1.2187461    3.1491046 
        13.9   -2.9959892    1.1726424     3.400218 
       13.95   -2.9974267    1.2170286    3.1364186 
          14   -2.9975353    1.2948331     2.729301 
       14.05   -2.9995773    1.3104905    2.6395909 
        14.1   -2.9993711    1.3093409    2.6402959 
       14.15   -2.9981311    1.2947539    2.7935942 
        14.2   -3.0024915    1.4056119    2.2201028 
       14.25   -2.9997895    1.2876505    2.7807552 
        14.3   -2.9983283    1.2839279    2.7823274 
       14.35   -3.0002237     1.281283    2.8209152 
        14.4   -2.9993124    1.3124308    2.6042736 
       14.45   -2.9975596    1.2897009    2.6321075 
        14.5   -2.9987684    1.3569712    2.2103013 
       14.55   -2.9949478    1.3221282    2.5251756 
        14.6   -2.9990128    1.1968536    3.2936507 
       14.65    -2.997074    1.3066641    2.7325974 
        14.7   -2.9989881    1.3119309    2.6708327 
       14.75    -2.999703    1.2705526    2.9785146 
        14.8   -2.9993531    1.2464124    3.0924437 
       14.85    -2.998482    1.3038806    2.6773892 
        14.9   -2.9965764    1.2113289    3.1101277 
       14.95    -2.996129    1.2411887    2.9773793 
          15   -2.9948315    1.2767683    2.8210166 
       15.05    -2.996685    1.3564487    2.4726043 
        15.1   -2.9971711    1.3098077    2.7972205 
       15.15   -2.9952045    1.2455559    3.0315227 
        15.2   -2.9967366    1.2717737    2.7490162 
       15.25   -2.9982707    1.2557902    2.8792234 
        15.3   -2.9965066    1.2326376    2.9998062 
       15.35   -2.9966884    1.2796775    2.7092122 
        15.4   -2.9960797     1.247641    2.9268373 
       15.45   -2.9995411    1.2796052    2.8024418 
        15.5   -3.0009046    1.2404073    3.0813693 
       15.55   -2.9987478    1.2335767    3.1188674 
        15.6   -2.9998991    1.3175468    2.6677327 
       15.65   -2.9982937    1.2267118    3.1547157 
        15.7   -2.9983035    1.2995874    2.7255063 
       15.75   -2.9980985    1.2825545    2.8542798 
        15.8   -3.0002285    1.3054331    2.7527205 
       15.85    -2.999866    1.2783736    2.8113284 
        15.9   -2.9992261    1.3823328    2.2433099 
       15.95   -2.9991031    1.3365869    2.6460365 
          16   -2.9965188    1.2565682    3.0860579 
       16.05   -2.9969786    1.3062203    2.7498084 
        16.1   -2.9976114    1.3119442    2.7297133 
       16.15   -2.9979154    1.2708496    2.8780973 
        16.2   -2.9992494    1.2834604    2.7789012 
       16.25   -2.9969251    1.1774711    3.4321196 
        16.3   -2.9973972    1.2100403     3.272915 
       16.35    -2.996687    1.2928253     2.822728 
        16.4   -2.9998063    1.2431636    3.1233897 
       16.45    -2.998761    1.3260836    2.6322812 
        16.5   -2.9994918    1.3451469    2.4589798 
       16.55   -3.0016699    1.3813897    2.2291567 
        16.6   -3.0033275    1.3438626    2.4096247 
       16.65   -3.0012625    1.2723537    2.8561811 
        16.7   -2.9967887     1.180706    3.2931289 
       16.75   -2.9968733     1.335654    2.4365925 
        16.8   -2.9964702    1.2520299    2.9316274 
       16.85   -2.9983704     1.263405    2.9215968 
        16.9    -2.997822    1.3466348    2.4475459 
       16.95   -2.9984864    1.2508459    2.9790757 
          17   -2.9989477     1.214843    3.3249073 
       17.05   -2.9971501    1.3243655    2.7385361 
        17.1   -2.9960458     1.231708    3.2236655 
       17.15   -2.9956688    1.3061114    2.8396464 
        17.2   -2.9940903    1.2149039    3.2537097 
       17.25   -2.9970066    1.3488835    2.4941608 
        17.3   -2.9979219    1.2841161     2.872873 
       17.35   -2.9978414     1.266912    2.9918305 
        17.4   -2.9979966    1.1715363    3.4301847 
       17.45    -2.997221    1.1934695    3.2387157 
        17.5   -2.9971633    1.2906929    2.5939571 
       17.55   -2.9970711    1.2696118    2.7245051 
        17.6   -3.0006837    1.2715563    2.8255505 
       17.65   -2.9997389     1.260931    2.7344396 
        17.7    -2.998231    1.3521721    2.3923204 
       17.75   -2.9983444    1.2690313    3.0911022 
        17.8   -2.9972324    1.3373495     2.685311 
       17.85   -2.9968843    1.2949981    2.7716015 
        17.9   -2.9966268    1.2560972    2.9989915 
       17.95   -2.9953521    1.1942099    3.3256573 
          18   -2.9933038    1.2254367    3.1527185 
       18.05   -2.9964882    1.2594287    2.9341884 
        18.1   -2.9975495    1.2353576    3.0147038 
       18.15   -2.9956601    1.4074716    2.0705637 
        18.2   -2.9953059    1.2695763    2.9872717 
       18.25   -2.9956757    1.2204007    3.2300425 
        18.3   -2.9950809    1.2885863    2.7478333 
       18.35   -2.9997511    1.3471549    2.5059574 
        18.4   -2.9969053    1.2519312    3.1485621 
       18.45   -2.9964003    1.1803085    3.6222968 
        18.5   -2.9936573    1.2186015    3.3495772 
       18.55   -2.9985621    1.3113861    2.7465336 
        18.6   -2.9997341    1.2482217    2.9509354 
       18.65   -2.9988123    1.2969511    2.6627847 
        18.7   -2.9995075    1.2626357    2.8871714 
       18.75   -2.9984598    1.2680418    2.8621247 
        18.8   -2.9958002    1.3696558    2.3170575 
       18.85   -2.9989114    1.3218578    2.6441591 
        18.9   -2.9989277    1.2813555    3.0017427 
       18.95   -3.0006399    1.2093378    3.4908629 
          19   -2.9997565    1.2936102    3.0063563 
       19.05   -2.9999952    1.2722489    3.0594638 
        19.1   -2.9999519    1.2066553    3.3961783 
       19.15   -3.0007072    1.3027254    2.8068795 
        19.2   -3.0004408    1.3396236    2.5667835 
       19.25   -3.0008124    1.2869753    2.8759593 
        19.3   -2.9977978    1.2364941     3.088199 
       19.35    -2.999315    1.2142571    3.0572827 
        19.4   -2.9999153    1.3059037     2.491121 
       19.45   -2.9995535    1.2788739    2.6845404 
        19.5    -2.996003     1.331508    2.4865755 
       19.55   -2.9981154    1.2169427    3.1108189 
        19.6    -2.997162    1.2599904    2.9054433 
       19.65   -2.9977959     1.252238    2.9663097 
        19.7   -2.9967042    1.3329972    2.6334182 
       19.75   -2.9989793    1.2848347      3.01151 
        19.8   -2.9955113    1.3199801    2.7478742 
       19.85   -2.9953493    1.3703671    2.3514258 
        19.9   -2.9965528    1.3263259    2.5373377 
       19.95   -3.0007035    1.3640098    2.3179206 
          20   -3.0017123    1.2921731    2.7149477 
       20.05   -2.9985467    1.3838025    2.1763207 
        20.1    -2.998075    1.2934453    2.6122526 
       20.15   -2.9987821    1.2961835    2.7460687 
        20.2   -2.9955352    1.2167333    3.2359667 
       20.25   -2.9982781    1.2326046    3.1577117 
        20.3   -2.9988032    1.2000675    3.2091519 
       20.35   -3.0008825    1.3670656    2.2329158 
        20.4    -2.999533    1.2960752    2.7610837 
       20.45   -3.0011591    1.2326618    3.1276094 
        20.5   -3.0005902    1.2122284    3.1226456 
       20.55   -3.0019413    1.3257671    2.4762066 
        20.6   -3.0026375    1.2940307    2.6747212 
       20.65   -2.9988605    1.3513699    2.4728427 
        20.7   -2.9990677    1.3250995     2.703575 
       20.75   -2.9991222    1.3378237    2.6001282 
        20.8   -2.9988103    1.3079549    2.6438316 
       20.85   -2.9982356    1.2960477    2.7308827 
        20.9    -3.000753    1.2545328    3.0645728 
       20.95   -2.9977218    1.2514732    3.1137036 
          21   -3.0000186    1.3956315    2.3396397 
       21.05    -2.996635    1.2624942    3.0506442 
        21.1   -3.0001781    1.3100621    2.7634273 
       21.15   -2.9995374    1.2659389    2.8585292 
        21.2   -2.9983771    1.3693014    2.1513318 
       21.25   -2.9951169    1.4319903     1.807679 
        21.3   -2.9976177     1.269679    2.7403458 
       21.35   -2.9954098    1.2754473    2.8475745 
        21.4   -2.9958539    1.1960734    3.2923323 
       21.45    -2.995026     1.289366    2.7488543 
        21.5   -2.9923757    1.2964381     2.791759 
       21.55   -2.9897524    1.1713574    3.5299584 
        21.6   -2.9921743    1.2680652    3.0277194 
       21.65   -2.9906811    1.2822624    2.9681801 
        21.7   -2.9923455    1.1369309    3.6917174 
       21.75   -2.9954467    1.2236595    3.1980118 
        21.8   -2.9953644    1.2277101    3.2947098 
       21.85   -2.9955673    1.2279218    3.3454522 
        21.9    -2.996982    1.1923179    3.3942511 
       21.95   -2.9952253    1.2182023    3.1578266 
          22   -2.9955929    1.2183343    3.1584942 
       22.05   -2.9967652    1.2613954    2.9732133 
        22.1   -2.9946515    1.2357012    3.1739229 
       22.15   -2.9924591    1.2365002    3.1364663 
        22.2   -2.9920542     1.187068    3.3528744 
       22.25   -2.9937718    1.2430641    3.0893216 
        22.3   -2.9981649    1.2900025    2.8293367 
       22.35    -2.999139    1.1707443    3.5027384 
        22.4   -2.9983878    1.2614579    3.1972174 
       22.45   -2.9964133    1.1792911    3.7114085 
        22.5   -2.9939637    1.2914621    2.9644057 
       22.55   -2.9939391    1.3191177    2.6972674 
        22.6   -2.9979547    1.2911034    2.9098936 
       22.65   -2.9989563    1.2220272    3.3254774 
        22.7   -3.0008949    1.2493594    3.1834237 
       22.75   -2.9999339    1.3439089    2.6937847 
        22.8   -2.9991015    1.2682182    3.1382608 
       22.85   -3.0001935    1.3149213    2.8264099 
        22.9   -2.9981186    1.3639135    2.4636809 
       22.95   -2.9977348    1.2838388    2.7969593 
          23    -2.997965    1.3223179    2.4978153 
       23.05   -2.9973371    1.3061853    2.4903266 
        23.1   -3.0030072    1.3534807    2.2617783 
       23.15   -3.0022864    1.2821155    2.6697696 
        23.2   -2.9980722    1.2418806    2.8638467 
       23.25   -2.9970824    1.3454572    2.3736716 
        23.3   -2.9953013    1.2081114    3.1662904 
       23.35   -2.9960772    1.2442141    3.0532242 
        23.4   -3.0009719      1.24894    3.0627573 
       23.45   -2.9994435    1.2165778    3.2716281 
        23.5    -2.998154    1.2136089    3.2707013 
       23.55   -2.9993323    1.2631958    2.8309121 
        23.6   -2.9979811    1.2293752    2.9228338 
       23.65   -2.9983356    1.2474645    2.9465616 
        23.7    -2.996506    1.2402484    3.0864603 
       23.75   -2.9996351     1.278394    2.7053347 
        23.8   -2.9981299    1.3412362    2.3190231 
       23.85   -2.9995226    1.2318875    3.1185927 
        23.9   -2.9981357    1.1916032    3.3255091 
       23.95    -3.000701    1.2837331    2.6849207 
          24   -2.9960625    1.2444836    2.9052735 
       24.05   -3.0000735    1.2657502    2.9234031 
        24.1    -3.000899    1.2644715    2.9658806 
       24.15      -3.0025    1.3923338    2.2711636 
        24.2   -3.0019799    1.3141058    2.7092434 
       24.25   -3.0021219     1.203131    3.3302773 
        24.3    -3.000167    1.2805384    2.9756707 
       24.35   -3.0001556    1.2574506    3.1536681 
        24.4    -3.000702    1.2443937    3.1400688 
       24.45   -2.9966268    1.2434734    3.0175065 
        24.5   -2.9992315    1.2464314    3.0827731 
       24.55   -2.9977805    1.2324249    3.2391041 
        24.6   -2.9952021    1.3272726    2.8025104 
       24.65   -2.9990465    1.3201306    2.7383236 
        24.7   -3.0009466    1.2815368    2.7248097 
       24.75   -3.0006232    1.3009396    2.6663319 
        24.8    -3.000988    1.3254914     2.772915 
       24.85    -3.001803    1.2406153    3.3024155 
        24.9   -2.9994412    1.2757037    3.0785192 
       24.95     -2.99909     1.266997    3.1506705 
          25   -2.9975667    1.2413728    3.3302163 
       25.05   -2.9993382    1.2287143    3.3750876 
        25.1    -2.997638    1.1489849    3.7155942 
       25.15     -2.99732    1.3472949    2.5425475 
        25.2   -2.9952818    1.3337197    2.6174648 
       25.25   -2.9976146    1.2499733     3.176203 
        25.3   -2.9956895    1.1879903     3.550186 
       25.35   -2.9962014    1.2439083     3.186022 
        25.4   -2.9967856    1.3228927    2.6501969 
       25.45    -2.996531     1.354763    2.4344876 
        25.5   -2.9926833    1.1974524    3.4115451 
       25.55   -2.9958668      1.16024    3.6506797 
        25.6   -2.9958436    1.3009525    2.8223714 
       25.65   -2.9964415    1.2814435    2.8442996 
        25.7   -2.9949145    1.2145437    3.2478111 
       25.75   -2.9949757    1.1919819    3.3869214 
        25.8   -2.9985995    1.2917589    2.7427814 
       25.85   -2.9990238    1.2854084    2.7136983 
        25.9   -2.9966497    1.2244525    3.1082972 
       25.95   -2.9997309    1.2518924    2.9746378 
          26   -2.9997406     1.260333    2.8900246 
       26.05   -2.9949922    1.2342424    3.1072059 
        26.1    -2.996342    1.3095708    2.6742833 
       26.15   -2.9985021    1.3033736    2.6001369 
        26.2   -2.9960381    1.3411681    2.3383562 
       26.25   -2.9971362    1.2975148    2.6486856 
        26.3   -2.9973567    1.2630809    2.9049192 
       26.35   -2.9981578    1.1939479    3.3519523 
        26.4   -2.9985283     1.295875    2.7079931 
       26.45   -3.0009385     1.298885    2.5439662 
        26.5   -3.0022837    1.3442528     2.325194 
       26.55   -2.9970937    1.3448493    2.3610942 
        26.6   -2.9968346    1.2794614    2.7056403 
       26.65   -2.9975244    1.2285185    2.9141687 
        26.7   -2.9964977    1.3181355    2.4181243 
       26.75   -3.0012743    1.2817357    2.6554508 
        26.8   -3.0005563    1.2686035    2.8284729 
       26.85   -2.9984778    1.2046959    3.1359076 
        26.9   -2.9998008    1.3672324    2.2132909 
       26.95   -2.9996518    1.3132419    2.5207222 
          27   -2.9967686    1.2355008    2.9644469 
       27.05   -2.9968046    1.2363384    3.0645023 
        27.1   -2.9969872    1.2240965    3.1580916 
       27.15   -2.9979887    1.3418698    2.4418857 
        27.2   -2.9979657    1.3200012    2.6278346 
       27.25   -2.9989631    1.1456665    3.7036049 
        27.3   -2.9977425     1.233893    3.2171178 
       27.35   -2.9994358    1.2444442    3.2204929 
        27.4   -3.0000303    1.3019668    2.9333328 
       27.45   -3.0019418    1.3270188    2.6177008 
        27.5   -2.9993623    1.2570111    2.9104963 
       27.55   -2.9982156    1.3092834    2.5544726 
        27.6   -2.9957735    1.2458001    2.9588968 
       27.65      -3.0008    1.3299649    2.4876816 
        27.7   -2.9999431    1.3272349    2.4891674 
       27.75   -2.9960208    1.2895651    2.7740116 
        27.8   -2.9974778    1.3626444    2.5032292 
       27.85   -2.9940488    1.1859134    3.5123085 
        27.9   -2.9947703    1.1559949    3.6012139 
       27.95   -2.9960243    1.2432634    2.9884395 
          28   -2.9988736    1.2241308    3.0963795 
       28.05   -2.9979258    1.2032164    3.2883059 
        28.1   -2.9964336    1.2663169    2.9738336 
       28.15   -2.9977605    1.3221442     2.638823 
        28.2   -2.9981374    1.2485154    3.0357724 
       28.25   -2.9983797     1.218518    3.1885954 
        28.3    -2.999535    1.2636696    2.9240131 
       28.35   -2.9990115    1.3264781    2.5331644 
        28.4   -3.0007883    1.3270886    2.4746782 
       28.45   -3.0002994     1.164371    3.4014909 
        28.5   -2.9985799     1.258285    2.9737811 
       28.55   -2.9987973    1.2910769    2.7390338 
        28.6   -2.9994569    1.2781027     2.761507 
       28.65   -2.9997905    1.2489013    2.9885593 
        28.7   -3.0021317     1.289839    2.8107106 
       28.75   -2.9975632    1.2655319    2.9362691 
        28.8   -2.9984848    1.2411305    3.1013847 
       28.85   -2.9966707    1.1862356    3.4470034 
        28.9   -2.9974796    1.2764778    3.0471046 
       28.95    -2.996607    1.2644208    3.1874643 
          29   -2.9950275     1.197311    3.5541855 
       29.05   -2.9957748    1.3183849    2.8366564 
        29.1   -2.9987803    1.2750885    2.8592735 
       29.15   -2.9970245    1.2387832    2.9797793 
        29.2   -2.9961517    1.2816885    2.8632538 
       29.25   -2.9967748    1.1520259    3.6932092 
        29.3    -2.999287    1.2481862    3.1341022 
       29.35   -3.0029688     1.218554    3.2249426 
        29.4    -2.998015     1.300856    2.6708716 
       29.45   -2.9997852    1.3750179    2.3907178 
        29.5   -2.9971629    1.2410148    3.2591411 
       29.55   -2.9981547     1.396803    2.3705062 
        29.6   -2.9983434    1.2381501    3.1712425 
       29.65   -2.9982889    1.2115869    3.1817147 
        29.7   -2.9976833    1.3528159    2.4414298 
       29.75   -2.9948602    1.2908064    2.7798759 
        29.8   -2.9950111    1.3878602    2.2651434 
       29.85   -2.9950286    1.1923219    3.3896248 
        29.9   -2.9961218    1.2918873    2.9252208 
       29.95    -2.996046    1.2762045    2.9806235 
          30   -2.9930984    1.2360201    3.1350127 
       30.05    -2.992552     1.258135    2.9395907 
        30.1   -2.9940088    1.3291552    2.5520266 
       30.15   -2.9978603    1.2206961    3.1564207 
        30.2   -2.9998256    1.2215071    3.1519787 
       30.25   -2.9993388    1.2594564    2.9117124 
        30.3   -2.9963593    1.2261566    3.1478196 
       30.35   -2.9977105    1.2041921    3.3316321 
        30.4   -2.9991602    1.2960286    2.8517689 
       30.45   -2.9993273    1.2360318    3.1640889 
        30.5   -2.9981184    1.2757878    3.0079171 
       30.55   -2.9973033     1.208295    3.4359828 
        30.6   -2.9978369    1.2342815    3.1796493 
       30.65   -2.9971807    1.2786672    2.6828267 
        30.7    -2.996696    1.3153234    2.5336726 
       30.75    -2.995121    1.2329273     3.159786 
        30.8   -2.9960082    1.3265407    2.8162606 
       30.85   -2.9959157    1.2989618    2.9538004 
        30.9   -2.9960937     1.141219     3.751432 
       30.95   -2.9965551    1.2991792    2.8618139 
          31   -2.9959388    1.2413397    3.1393695 
       31.05   -2.9948505    1.2059635    3.3582099 
        31.1   -2.9935639    1.2754728    3.0026491 
       31.15   -2.9936676      1.19114    3.5899203 
        31.2   -2.9944864    1.1946061    3.6268211 
       31.25    -2.995889    1.1991715    3.4839573 
        31.3   -2.9963145    1.2735043    3.0449532 
       31.35   -2.9974288    1.2337643    3.2521965 
        31.4   -2.9974412    1.2367973    3.1060303 
       31.45    -2.998447    1.3778607    2.2621859 
        31.5   -3.0006017    1.2433517    3.0273999 
       31.55   -3.0007401    1.2582389    3.0781111 
        31.6   -2.9964936    1.2500694    3.2946564 
       31.65   -2.9979863    1.2509226    3.2858146 
        31.7   -3.0003383    1.3061528    2.7963664 
       31.75   -2.9992855    1.2915207    2.7257342 
        31.8    -2.998291    1.3097077    2.6116777 
       31.85    -2.998877    1.1904061    3.2554334 
        31.9   -2.9976975    1.2216735    3.0279182 
       31.95   -2.9998393    1.2459439    2.8746226 
          32   -2.9986862     1.261188    2.9122149 
       32.05   -3.0019183    1.3912263    2.2748284 
        32.1   -2.9984813    1.2862876    2.8386966 
       32.15   -3.0007614    1.2888446    2.7914156 
        32.2     -3.00005    1.3554255    2.3917296 
       32.25   -2.9967864    1.3426792    2.4150374 
        32.3   -2.9969272    1.3380801    2.5432088 
       32.35   -3.0012613    1.2196823    3.1710383 
        32.4    -2.999467    1.2862393    2.7077199 
       32.45   -3.0002077    1.3717167    2.2388427 
        32.5   -2.9997829     1.254408    2.9925165 
       32.55   -2.9995139    1.2432331    3.0675962 
        32.6   -2.9972826    1.3356571     2.446936 
       32.65   -2.9985861    1.2774743    2.7690769 
        32.7   -3.0002833    1.2089441    3.1861533 
       32.75   -2.9999139    1.3546059    2.4158846 
        32.8   -2.9966209    1.2873066    2.7960415 
       32.85   -2.9994229    1.2355159     3.055798 
        32.9   -3.0003265    1.2538256    2.9320725 
       32.95    -2.999005    1.2018464    3.2859958 
          33   -2.9985491    1.2232685    3.1398286 
       33.05   -3.0011681    1.2989917    2.6925753 
        33.1   -2.9975811     1.192826    3.2533583 
       33.15   -3.0010097    1.3669601    2.2451018 
        33.2   -3.0016265    1.3347768    2.4582122 
       33.25   -3.0003484     1.330605    2.4925347 
        33.3    -3.000217    1.2669393    2.6811654 
       33.35   -3.0006083    1.2973018    2.5068361 
        33.4   -3.0025017    1.2819199    2.6664282 
       33.45    -3.000588    1.2205027    2.9766233 
        33.5   -3.0016862    1.2293981    2.9086639 
       33.55   -2.9990397    1.3001391    2.7166183 
        33.6   -3.0004422    1.3123251    2.6673607 
       33.65   -2.9998499    1.3168835    2.6325485 
        33.7   -2.9980074    1.2167654      3.20757 
       33.75   -3.0007346    1.3080057    2.7478389 
        33.8   -2.9986988    1.2577773    3.0209443 
       33.85   -2.9994838    1.1881682     3.323177 
        33.9   -3.0019952    1.2056474    3.1591417 
       33.95   -2.9989352    1.2245534    3.1270356 
          34   -2.9997131     1.261091    2.9557398 
       34.05    -2.996946    1.1346424    3.6672266 
        34.1   -2.9954009    1.2286745    3.3200333 
       34.15   -2.9954695    1.3067294    2.8927762 
        34.2   -2.9968557    1.3836144    2.2977946 
       34.25   -2.9979873    1.2803284    2.7190154 
        34.3   -3.0008875    1.2656311    2.7533265 
       34.35   -3.0024445    1.1764365    3.1949832 
        34.4   -3.0020552    1.2578188     2.702696 
       34.45   -3.0013911    1.2950383    2.5948449 
        34.5   -2.9995199    1.2401433    2.8960323 
       34.55    -3.001324    1.3768765    2.1564396 
        34.6   -2.9998046    1.3547305    2.3955818 
       34.65   -2.9951388    1.2722596    3.0542402 
        34.7   -2.9964891     1.223578    3.4964503 
       34.75    -2.994347    1.2056697    3.6114215 
        34.8   -2.9955789    1.2930249    3.1652869 
       34.85   -2.9925849    1.1571617    3.9736583 
        34.9   -2.9938034    1.2472733    3.4406647 
       34.95    -2.995802    1.3169975    2.8454893 
          35   -2.9937901    1.2180544    3.3240166 
       35.05   -2.9953957    1.2612775    3.0812765 
        35.1   -2.9973264     1.272433    2.8137807 
       35.15   -2.9960698    1.2367447    2.9036114 
        35.2   -2.9982745    1.2372219    3.0242426 
       35.25    -2.998973     1.171328    3.4730416 
        35.3   -2.9995526    1.2222208    3.2293383 
       35.35   -2.9990354    1.1444731    3.6782282 
        35.4   -2.9978539    1.2914323    2.8679461 
       35.45   -2.9977766    1.2370286     3.045762 
        35.5   -3.0007458    1.3142701       2.6175 
       35.55   -2.9993575     1.309617    2.6840696 
        35.6   -2.9986444    1.1213229    3.9071765 
       35.65   -2.9978147    1.1127208     3.989056 
        35.7   -2.9995725    1.2923915    2.9446454 
       35.75   -2.9984731    1.3028818    2.7814962 
        35.8   -2.9976914    1.3056797    2.7928464 
       35.85   -3.0018143    1.1758101    3.4466613 
        35.9   -3.0022515     1.219757    3.1143746 
       35.95   -3.0020595    1.3101547    2.5421437 
          36   -3.0027628     1.297693    2.6586459 
       36.05   -3.0005753    1.2483954    2.9149894 
        36.1   -3.0015845    1.3026576    2.6434035 
       36.15   -2.9970372    1.2727975    2.8926638 
        36.2    -2.997903    1.3447917    2.5424516 
       36.25   -2.9991096    1.2807171    2.9417823 
        36.3   -2.9982025    1.2552295    3.0560886 
       36.35    -2.999654    1.2616611    2.9754466 
        36.4   -2.9970651    1.1959369    3.2557736 
       36.45   -2.9986168    1.3032847    2.6609731 
        36.5   -2.9970058    1.3193689    2.7305114 
       36.55   -2.9964377    1.2291427    3.3190767 
        36.6   -2.9966329    1.2707566    3.1274001 
       36.65   -2.9971515    1.2165123     3.370778 
        36.7   -2.9980241    1.2136063    3.3899389 
       36.75   -2.9963874    1.3151107    2.7671174 
        36.8    -2.995441    1.2900142    2.8389207 
       36.85   -2.9945143    1.2830643    2.8644771 
        36.9   -2.9971676    1.2070859    3.1690044 
       36.95   -2.9955957    1.2286899    3.1052396 
          37   -2.9975574    1.2401302    3.1576563 
       37.05   -2.9998025    1.2157767    3.3882747 
        37.1   -2.9986228    1.1782167    3.4901423 
       37.15   -2.9982121    1.2620576    2.9344808 
        37.2   -2.9977564    1.3574698    2.3720212 
       37.25   -2.9977636    1.2407173    3.0013315 
        37.3   -3.0023574    1.2442806    2.9787345 
       37.35   -2.9995185    1.1662679    3.3273715 
        37.4   -3.0024945    1.3621875    2.2501939 
       37.45   -3.0016046    1.2998745    2.6529785 
        37.5   -3.0005953    1.3159355    2.6781584 
       37.55   -3.0014374     1.292843    2.8309451 
        37.6   -3.0024243    1.3507445    2.5740222 
       37.65   -3.0016147    1.3687867    2.4951691 
        37.7   -3.0049982    1.3166056    2.7502995 
       37.75   -3.0015694    1.1837452    3.5302992 
        37.8   -3.0007841    1.1514863     3.801201 
       37.85   -3.0005476    1.2468205    3.3655122 
        37.9   -2.9983949    1.2092957     3.591584 
       37.95   -2.9962479    1.3012651    3.1142052 
          38   -2.9998887    1.2454511    3.2761728 
       38.05   -3.0002922    1.2253574    3.2364107 
        38.1   -3.0000524    1.2063321    3.3037202 
       38.15   -2.9999492    1.3482717     2.463857 
        38.2   -2.9978589     1.273487    2.8193323 
       38.25   -2.9974269    1.2644416     2.956981 
        38.3   -2.9989546    1.2484987    2.9812724 
       38.35   -2.9969776    1.2644568    2.8086436 
        38.4   -2.9986536    1.3230227    2.3613894 
       38.45   -3.0004851    1.2740053    2.6836461 
        38.5   -2.9990742     1.207322    3.1884386 
       38.55   -2.9964243    1.2030517    3.3252088 
        38.6   -2.9958311    1.1803185    3.5709521 
       38.65   -2.9989473    1.2395689    3.1274713 
        38.7   -3.0001312    1.2812401    2.6897908 
       38.75   -2.9995217    1.2580034    2.8220758 
        38.8   -2.9965907    1.2476572    2.9372047 
       38.85   -2.9967479    1.2398617    3.0128623 
        38.9   -2.9979542    1.3009921    2.7337796 
       38.95   -2.9978409     1.271802    2.9790368 
          39   -2.9974317    1.2335463     3.353452 
       39.05   -2.9964875    1.2623299    3.2188936 
        39.1   -2.9970033    1.3512173    2.5599942 
       39.15   -2.9966503    1.2617685    2.8292481 
        39.2   -2.9984381    1.3292557    2.4589783 
       39.25   -2.9979252    1.2241964    3.0817915 
        39.3   -2.9978994    1.2913056    2.8738688 
       39.35   -2.9981866    1.2731227    2.9674642 
        39.4   -2.9962782    1.3711093    2.3319476 
       39.45   -2.9938964    1.3032026    2.6198793 
        39.5   -2.9970345    1.2245144    3.0497668 
       39.55   -2.9953776    1.2682686    2.7554783 
        39.6   -2.9963191    1.2916955    2.6398771 
       39.65   -2.9973008     1.297268    2.6808531 
        39.7   -2.9977763     1.263472    2.9488868 
       39.75   -2.9961457    1.1498909    3.6456571 
        39.8   -2.9981368    1.2698185    3.0178607 
       39.85   -2.9971799    1.1457757    3.6197269 
        39.9   -3.0007852    1.3103682    2.6398325 
       39.95   -2.9999015    1.2769808    2.6674028 
          40   -3.0017089    1.2699017     2.646262 
       40.05   -3.0038998    1.3315492    2.2898515 
        40.1   -3.0029476    1.3052958     2.399297 
       40.15   -3.0021567    1.3464011    2.3151562 
        40.2   -2.9985192    1.2331557    3.0396385 
       40.25   -3.0002142    1.2819484    2.6575235 
        40.3   -3.0026155    1.2809258    2.5520793 
       40.35   -3.0020605    1.3174936    2.4617176 
        40.4   -2.9987418    1.2671777    2.8281603 
       40.45   -2.9973375    1.3411463    2.4851311 
        40.5   -2.9970904    1.2909567    2.8903848 
       40.55   -2.9975862    1.2030551    3.4046891 
        40.6   -2.9983563    1.2360745    3.1486699 
       40.65   -2.9968716    1.2570716     3.026687 
        40.7   -3.0010282    1.2915532    2.9577313 
       40.75   -2.9984563    1.1286485    3.8455475 
        40.8   -2.9950918     1.230972    3.2047779 
       40.85   -2.9966426    1.2839348    2.9154221 
        40.9     -2.99933     1.301744    2.8081236 
       40.95   -2.9983634    1.1654165     3.564829 
          41   -3.0012971    1.2612727    3.1166737 
       41.05   -2.9979766    1.2770205    2.9979245 
        41.1   -2.9985424    1.2580067    2.9892836 
       41.15   -2.9979686    1.3118484    2.6754574 
        41.2   -2.9969107    1.2705472    2.8482688 
       41.25   -3.0003508    1.3234624    2.5365497 
        41.3   -3.0002496    1.2656034    2.8075932 
       41.35   -2.9984965    1.3210183    2.5833165 
        41.4   -2.9979728    1.1271007    3.5972225 
       41.45   -2.9992459    1.3347823    2.5259599 
        41.5   -2.9980785    1.2650484    3.0179451 
       41.55   -2.9983219    1.2221555    3.3845971 
        41.6   -3.0004426    1.2381744    3.3861289 
       41.65    -2.998454    1.3109291     3.009446 
        41.7   -2.9985679    1.3026755    3.0793343 
       41.75   -2.9951551    1.2344728    3.4301025 
        41.8   -2.9951482    1.2316149    3.3609136 
       41.85   -2.9957304    1.2416589    3.2581521 
        41.9   -2.9971835     1.217104     3.395734 
       41.95   -2.9973327    1.2986305    2.9389544 
          42    -2.998404    1.2571373    3.0805551 
       42.05   -2.9983982     1.327774     2.698601 
        42.1   -3.0010587    1.2281505    3.2611683 
       42.15   -2.9995355    1.2124727    3.3960486 
        42.2   -2.9984719    1.2334139    3.2412082 
       42.25   -2.9999157    1.3521812    2.5241186 
        42.3           -3    1.2725516    2.8500801 
       42.35   -2.9993765    1.2629817    2.8792922 
        42.4   -2.9964768    1.3204274     2.423726 
       42.45   -2.9961703    1.2578805    2.7772875 
        42.5   -2.9979313    1.2186625    3.1672506 
       42.55   -2.9956832     1.193575    3.3997264 
        42.6   -2.9983147    1.2289887    3.2722964 
       42.65    -2.996853    1.2754451    3.0036432 
        42.7   -2.9938653    1.3122782    2.7378833 
       42.75   -2.9949212    1.3628619    2.4062893 
        42.8   -2.9966326    1.2371829    3.0741112 
       42.85   -2.9949487    1.1857256    3.4026541 
        42.9   -2.9965561    1.2498871    3.0325002 
       42.95   -2.9947299    1.1930035    3.3634136 
          43    -2.998668    1.2125969    3.3719095 
       43.05    -2.996298    1.1795453    3.5083238 
        43.1   -2.9973408    1.2491878    3.0059907 
       43.15   -2.9966298    1.1832891    3.3070469 
        43.2   -2.9991892    1.1583916    3.5710947 
       43.25   -2.9976554    1.2507762    3.0749973 
        43.3   -2.9992168    1.3093888    2.7614278 
       43.35   -2.9953734      1.21134    3.2699781 
        43.4   -2.9964339    1.2949764    2.8536672 
       43.45   -2.9931919      1.20433    3.4049973 
        43.5   -2.9950279     1.310086      2.77805 
       43.55   -2.9980359    1.2962343    2.7862888 
        43.6   -3.0001206     1.342641    2.5658978 
       43.65   -3.0004178    1.2514601    3.1373752 
        43.7   -3.0017616    1.2430582    3.1373957 
       43.75   -3.0001065    1.2617145    2.9589869 
        43.8   -3.0046226     1.301464    2.6028854 
       43.85   -3.0040639    1.2620759    2.7663738 
        43.9   -3.0011289    1.3638784    2.3115953 
       43.95   -2.9980914    1.3095587      2.65693 
          44   -2.9971293    1.3086262    2.6879041 
       44.05   -2.9952874    1.2688328    2.8511348 
        44.1   -2.9974771    1.2310197    3.0362595 
       44.15   -2.9957328    1.1649481    3.4245261 
        44.2   -2.9989758    1.2685638    2.9651074 
       44.25   -2.9980062    1.2424293    3.1225263 
        44.3   -2.9998178    1.2596725    2.9997226 
       44.35   -2.9990128     1.281856    2.9322317 
        44.4   -2.9995704    1.2934031    2.8387452 
       44.45   -2.9988554    1.2858836     2.797692 
        44.5   -3.0021083      1.34909    2.3224326 
       44.55   -3.0013854    1.2655564    2.7212028 
        44.6   -3.0008706    1.3097743    2.6498204 
       44.65   -2.9953062    1.1552189    3.6452869 
        44.7   -2.9971065     1.288534    2.9598413 
       44.75   -2.9984098    1.2274597    3.1884919 
        44.8   -2.9966564    1.2354298     3.106501 
       44.85   -2.9994002     1.249775    2.9609389 
        44.9   -2.9980531    1.3170428     2.483558 
       44.95   -2.9983625    1.3215072    2.4120029 
          45   -2.9957095     1.238422    2.9456377 
       45.05   -2.9959869    1.3122132    2.6571297 
        45.1    -2.998734    1.3315176    2.6205958 
       45.15   -2.9988163    1.3338548    2.5262159 
        45.2   -2.9999393    1.3435765    2.3691681 
       45.25   -3.0011474    1.3220749    2.4688467 
        45.3   -2.9970556    1.1947155    3.1366226 
       45.35   -2.9978206    1.3033916    2.6214452 
        45.4   -2.9983237    1.2621126    2.8215614 
       45.45   -2.9975834    1.3292384    2.5037568 
        45.5   -2.9980392    1.3078037    2.6146815 
       45.55   -2.9984364    1.2725139    2.7662416 
        45.6   -3.0012245    1.2871341    2.7828116 
       45.65   -2.9998293    1.2125758    3.2760141 
        45.7   -2.9995386    1.2416264    3.1899513 
       45.75    -2.998731    1.2400684    3.1943013 
        45.8   -2.9998739    1.2094771    3.2870126 
       45.85   -2.9991746    1.3390846    2.6043503 
        45.9    -2.999957    1.2349105    3.2418788 
       45.95   -2.9994051     1.200715    3.6175486 
          46   -2.9999993    1.2033933    3.6585938 
       46.05   -2.9999097     1.217049    3.5441115 
        46.1   -3.0018219    1.2344586    3.4227465 
       46.15   -3.0012906    1.3033354    3.0130735 
        46.2   -3.0018351    1.2650542    3.0524779 
       46.25   -3.0003912    1.3014285    2.7972901 
        46.3   -2.9995002    1.2136923     3.260164 
       46.35   -3.0011928    1.3184664    2.6309994 
        46.4   -2.9983131    1.2959339    2.6323794 
       46.45   -2.9993516    1.2529312    2.9636288 
        46.5    -2.997831    1.2550618    3.0397538 
       46.55   -2.9986008    1.3474603    2.5292259 
        46.6   -2.9962617    1.3418438    2.4627693 
       46.65   -2.9977231    1.2361806     2.910424 
        46.7    -2.999893    1.1825957    3.2085994 
       46.75   -2.9972309    1.2027698    3.1870923 
        46.8   -2.9936156    1.2136835     3.286826 
       46.85   -2.9923251    1.1507032    3.6534629 
        46.9   -2.9964669    1.3272506    2.5777099 
       46.95   -2.9965669    1.3069916    2.6705632 
          47   -2.9960412    1.2549476    2.9794814 
       47.05   -2.9988435    1.3092255    2.6759137 
        47.1   -3.0007165    1.2239771    3.2187727 
       47.15   -2.9981823    1.1586585    3.4996592 
        47.2    -3.000072    1.3399291    2.4380342 
       47.25   -3.0004097    1.2595041    2.8582177 
        47.3   -2.9995652    1.3198266    2.5756146 
       47.35   -2.9995585    1.2310232    3.0795554 
        47.4   -2.9985467    1.2747744    2.9965806 
       47.45   -2.9973125    1.2401863     3.179954 
        47.5   -2.9976649    1.3491612    2.4980477 
       47.55   -2.9965993    1.3523109    2.3866415 
        47.6   -2.9967373    1.3218436    2.4765321 
       47.65   -2.9962105     1.332697    2.3972637 
        47.7    -2.995619     1.217242    2.8980935 
       47.75   -2.9965848    1.2947235    2.4934699 
        47.8   -2.9971047    1.2767045    2.6241882 
       47.85   -2.9979602    1.1983917    2.9675242 
        47.9   -2.9989619    1.3648274    2.1255386 
       47.95   -2.9971814     1.175628    3.2463832 
          48   -2.9980154    1.3111481    2.5241861 
       48.05   -2.9969936    1.2754045    2.8180351 
        48.1   -2.9961242    1.3104827    2.6753189 
       48.15   -2.9953721    1.2671405    2.8803449 
        48.2   -2.9978328     1.228054    3.0838624 
       48.25   -2.9967212    1.2218963    3.1079679 
        48.3   -2.9980946    1.2494974      2.99963 
       48.35   -3.0017621    1.3524296    2.4545335 
        48.4   -3.0017191    1.3151795    2.6549287 
       48.45   -3.0007988    1.2147653    3.3741013 
        48.5   -3.0028432    1.2620432    3.1143835 
       48.55   -2.9997917    1.1524475    3.5275804 
        48.6   -2.9965896    1.2644017    2.8674614 
       48.65   -3.0001609    1.3244749     2.560044 
        48.7   -2.9985077    1.1801405    3.3945837 
       48.75   -2.9990865    1.2815474    2.8986628 
        48.8   -2.9973371    1.2475254    3.0741924 
       48.85   -2.9969779    1.3005723    2.8273851 
        48.9   -2.9938601    1.3344478    2.5929501 
       48.95   -2.9954605    1.1639424    3.4089308 
          49   -2.9981115    1.2894351    2.7398604 
       49.05   -2.9980823    1.1164952    3.6836365 
        49.1    -2.997345    1.2294378    3.1497736 
       49.15   -3.0017871    1.2009709    3.3004262 
        49.2   -3.0004626    1.2261534    3.1019996 
       49.25   -3.0018432    1.3361869    2.3523791 
        49.3   -3.0030075    1.3080913    2.4342764 
       49.35   -3.0040411    1.3039939     2.568788 
        49.4   -3.0016419    1.2777886    2.8488859 
       49.45   -2.9988949    1.2879502     2.781364 
        49.5   -2.9994169     1.309238    2.6672213 
       49.55   -2.9958866    1.2621503    3.0385881 
        49.6   -2.9960359    1.2594931    3.1433072 
       49.65   -3.0004681    1.1658297    3.5852552 
        49.7   -2.9984735    1.2032419     3.337813 
       49.75   -2.9991424    1.2369022    3.0087582 
        49.8   -2.9981113    1.3018729    2.5387905 
       49.85   -2.9995348    1.2267564    3.0030674 
        49.9   -2.9982176    1.3249111    2.6162908 
       49.95   -2.9981966    1.3088488     2.714546 
          50   -2.9985315    1.3136511    2.6185594 
Loop time of 0.871534 on 8 procs for 10000 steps with 125 atoms

Performance: 4956778.096 tau/day, 11474.023 timesteps/s
186.5% CPU use with 1 MPI tasks x 8 OpenMP threads

MPI task timing breakdown:
Section |  min time  |  avg time  |  max time  |%varavg| %total
---------------------------------------------------------------
Pair    | 0.52971    | 0.52971    | 0.52971    |   0.0 | 60.78
Neigh   | 0.013954   | 0.013954   | 0.013954   |   0.0 |  1.60
Comm    | 0.05682    | 0.05682    | 0.05682    |   0.0 |  6.52
Output  | 0.023715   | 0.023715   | 0.023715   |   0.0 |  2.72
Modify  | 0.23936    | 0.23936    | 0.23936    |   0.0 | 27.46
Other   |            | 0.007977   |            |       |  0.92

Nlocal:        125.000 ave         125 max         125 min
Histogram: 1 0 0 0 0 0 0 0 0 0
Nghost:        2267.00 ave        2267 max        2267 min
Histogram: 1 0 0 0 0 0 0 0 0 0
Neighs:        19035.0 ave       19035 max       19035 min
Histogram: 1 0 0 0 0 0 0 0 0 0

Total # of neighbors = 19035
Ave neighs/atom = 152.28000
Neighbor list builds = 113
Dangerous builds = 0
unfix nve
reset_timestep 0

### BRING SYSTEM TO REQUIRED STATE ###
variable tdamp equal ${timestep}*100
variable tdamp equal 0.005*100
variable pdamp equal ${timestep}*1000
variable pdamp equal 0.005*1000
fix npt all npt temp ${T} ${T} ${tdamp} iso ${p} ${p} ${pdamp}
fix npt all npt temp 1.5 ${T} ${tdamp} iso ${p} ${p} ${pdamp}
fix npt all npt temp 1.5 1.5 ${tdamp} iso ${p} ${p} ${pdamp}
fix npt all npt temp 1.5 1.5 0.5 iso ${p} ${p} ${pdamp}
fix npt all npt temp 1.5 1.5 0.5 iso 1 ${p} ${pdamp}
fix npt all npt temp 1.5 1.5 0.5 iso 1 1 ${pdamp}
fix npt all npt temp 1.5 1.5 0.5 iso 1 1 5
run 10000
Last active /omp style is pair_style lj/cut/omp
Per MPI rank memory allocation (min/avg/max) = 10.63 | 10.63 | 10.63 Mbytes
Time TotEng Temp Press 
          50   -2.9985315    1.3136511    2.6185594 
       50.05   -2.9978032    1.3779797    2.2846319 
        50.1   -2.9913312     1.279196    2.9803498 
       50.15   -2.9831542    1.2313027     3.205802 
        50.2   -2.9740846    1.2913151     2.701969 
       50.25   -2.9561657    1.2147077     3.051216 
        50.3   -2.9344181    1.2960964    2.6234952 
       50.35   -2.9057343     1.218973    3.0280533 
        50.4   -2.8745446    1.2878517     2.730465 
       50.45   -2.8342515    1.4100061    2.1283083 
        50.5   -2.7946638    1.2897657    2.7963794 
       50.55   -2.7668898    1.3433063    2.5349758 
        50.6   -2.7407006    1.4162883    2.1718335 
       50.65   -2.7233312    1.2722257    2.9359877 
        50.7   -2.7129715     1.284344    2.8154773 
       50.75   -2.7054864    1.2846064    2.6167633 
        50.8   -2.6969923    1.2918372    2.3485636 
       50.85   -2.6840666    1.3014052    2.0663913 
        50.9   -2.6724731    1.3010497    1.9171526 
       50.95   -2.6646059    1.2103353    2.1943342 
          51   -2.6481439    1.3277673    1.4542254 
       51.05   -2.6273939    1.2575973    1.5547941 
        51.1   -2.5994238    1.3720329   0.87553179 
       51.15   -2.5712877    1.2180782    1.6476996 
        51.2   -2.5540624    1.1513226    2.0026204 
       51.25   -2.5281965    1.2822664    1.3177863 
        51.3   -2.4927324    1.2777838     1.252566 
       51.35   -2.4571392    1.3419311    0.9977521 
        51.4    -2.420212    1.1631435    1.9171266 
       51.45   -2.3963549    1.2321261    1.5874255 
        51.5   -2.3638749    1.2889612    1.2127184 
       51.55   -2.3282188    1.2916101    1.1149144 
        51.6   -2.2947159    1.2582984    1.3077454 
       51.65   -2.2645551    1.2649854    1.2321632 
        51.7   -2.2290633    1.2529673    1.1426503 
       51.75   -2.1903453    1.3759815   0.49183871 
        51.8   -2.1511757     1.264745   0.94607009 
       51.85   -2.1125485    1.2747596     1.020109 
        51.9    -2.075604    1.3165289   0.87771814 
       51.95    -2.029998    1.4080699   0.50343663 
          52   -1.9904788     1.390175   0.71379553 
       52.05   -1.9554004    1.3844615   0.96407505 
        52.1   -1.9172009     1.476582   0.78304873 
       52.15   -1.8785196     1.403059    1.2207866 
        52.2    -1.846394    1.4497413    1.1776069 
       52.25   -1.8168623    1.3409311    1.6637153 
        52.3    -1.782892    1.3642822    1.5131824 
       52.35   -1.7526088    1.4957227   0.84356716 
        52.4     -1.71672    1.3605698    1.3617029 
       52.45   -1.6855941    1.4453407    1.0858297 
        52.5    -1.655288    1.4613653   0.97216361 
       52.55   -1.6221326    1.4422521   0.98104901 
        52.6   -1.5878922    1.5441993   0.53314909 
       52.65   -1.5529809    1.5331112   0.63589171 
        52.7   -1.5253575    1.5560592   0.68915551 
       52.75   -1.4976752    1.5270573   0.99677565 
        52.8   -1.4731462    1.5962971   0.89475958 
       52.85   -1.4524215    1.5829677     1.104105 
        52.9   -1.4314943    1.5323475    1.4410758 
       52.95   -1.4176771    1.5228752    1.5485175 
          53   -1.4101798    1.5060142    1.6396151 
       53.05   -1.3976464    1.5278268    1.5489693 
        53.1   -1.3890534    1.5756479    1.3269805 
       53.15   -1.3785182    1.6922038   0.80790234 
        53.2   -1.3741203    1.6562546   0.88766805 
       53.25   -1.3739452    1.6000245    1.1256416 
        53.3   -1.3758374    1.4601605    1.6076277 
       53.35   -1.3779167    1.4033722    1.6497838 
        53.4   -1.3809265    1.5294805    1.0807389 
       53.45   -1.3829601    1.5141865    1.1384232 
        53.5   -1.3867989    1.5662421   0.88566306 
       53.55   -1.3906144    1.5439271   0.86949384 
        53.6   -1.3914822     1.428074     1.221999 
       53.65   -1.3972754    1.4467464    1.0121685 
        53.7   -1.3963856    1.5071201   0.71227907 
       53.75   -1.3929701    1.4423639   0.98055683 
        53.8   -1.3903712    1.4636419   0.95825622 
       53.85   -1.3882795    1.4005461    1.2485988 
        53.9   -1.3822751    1.4256934     1.216294 
       53.95   -1.3743762    1.5506495   0.74781802 
          54   -1.3634911     1.454958    1.1061553 
       54.05   -1.3516644    1.4666502   0.99533077 
        54.1   -1.3403834    1.4639427   0.93489806 
       54.15   -1.3246762    1.5102336    0.8124248 
        54.2   -1.3090203    1.4882264    1.0673926 
       54.25   -1.2935103    1.3459577    1.6828413 
        54.3   -1.2730282    1.5116759   0.94796765 
       54.35   -1.2463698    1.5012086   0.88793118 
        54.4   -1.2193616     1.502153    0.9216386 
       54.45   -1.1908814    1.4184523    1.3048432 
        54.5    -1.159909    1.3555272    1.5917293 
       54.55    -1.128223    1.4903853    1.0337847 
        54.6   -1.0885481    1.6395021   0.40963452 
       54.65   -1.0510478    1.5356149   0.85083687 
        54.7   -1.0198914    1.5876422   0.80983945 
       54.75  -0.98950297    1.5849783   0.96071246 
        54.8  -0.96530606    1.6050415   0.93757856 
       54.85  -0.94784108    1.5179572    1.2618896 
        54.9  -0.93216272    1.6143177   0.92412609 
       54.95  -0.91990923    1.6065196    1.0143979 
          55  -0.91006933    1.6218681   0.98743425 
       55.05  -0.90328911    1.5922304    1.0220688 
        55.1  -0.90562448    1.5736421    1.0067973 
       55.15  -0.90765936     1.596603   0.87835601 
        55.2  -0.91009516    1.6117957   0.85179584 
       55.25   -0.9195517    1.6271583   0.80179589 
        55.3  -0.92944026    1.5528701    1.0813556 
       55.35  -0.94334047     1.561757   0.98592455 
        55.4  -0.95933271    1.5574819   0.88624712 
       55.45  -0.97644018    1.5877141   0.79056825 
        55.5  -0.99574488    1.4700146     1.242214 
       55.55   -1.0119137    1.4947129    1.0575944 
        55.6    -1.031599    1.5164103   0.80241548 
       55.65   -1.0538345    1.5131215    0.6673562 
        55.7   -1.0744366    1.4394295   0.83249081 
       55.75   -1.0947152    1.5026253   0.53840632 
        55.8   -1.1188691    1.4629301   0.70067196 
       55.85   -1.1447921    1.4171384   0.94237592 
        55.9   -1.1722499    1.4016749    1.0696882 
       55.95   -1.1966287    1.3715508    1.0953044 
          56   -1.2258057    1.3338118   0.99571621 
       56.05   -1.2562495    1.4198714   0.45818595 
        56.1   -1.2885304    1.3388516   0.62045914 
       56.15   -1.3211326    1.3173084   0.57476429 
        56.2   -1.3613171    1.3503413   0.30443501 
       56.25   -1.4000877    1.3251358    0.3387005 
        56.3   -1.4403579    1.2551612   0.57921595 
       56.35   -1.4740485    1.2185487   0.66126495 
        56.4   -1.5034446    1.2492933   0.44510166 
       56.45   -1.5276004    1.1951166   0.46961576 
        56.5   -1.5462638     1.264805  0.095944596 
       56.55   -1.5605636    1.2401532   0.16079829 
        56.6   -1.5695793      1.20556   0.37175501 
       56.65   -1.5699083    1.1562825   0.64643484 
        56.7   -1.5610562     1.246171   0.34064267 
       56.75    -1.546744    1.2533298   0.35635439 
        56.8   -1.5239846    1.2636936   0.44546951 
       56.85   -1.4921504    1.2590345    0.5900122 
        56.9   -1.4511022    1.2951438   0.51387031 
       56.95   -1.4039413    1.3918386   0.21200141 
          57   -1.3569712    1.4136067    0.2972609 
       57.05   -1.3029924    1.3960501    0.6477189 
        57.1   -1.2504281    1.4158719   0.84084115 
       57.15   -1.2030435    1.4698528   0.81739318 
        57.2   -1.1592685    1.4457898     1.011584 
       57.25   -1.1209207    1.5002489   0.91168235 
        57.3   -1.0882505    1.5468459   0.89242971 
       57.35   -1.0637625    1.5980258   0.86335458 
        57.4   -1.0383674    1.4891072    1.3854143 
       57.45   -1.0211525    1.5908834    1.2258414 
        57.5   -1.0037673    1.5289291    1.6042527 
       57.55  -0.99498971     1.520714    1.5928896 
        57.6  -0.98130394    1.5242343     1.531856 
       57.65  -0.97300448    1.6847344   0.88828317 
        57.7  -0.96680217    1.5874464     1.300095 
       57.75  -0.96770504    1.5996197    1.3490554 
        57.8  -0.96985774    1.6032116    1.4645259 
       57.85  -0.97708201    1.5516839    1.7323461 
        57.9  -0.98621982    1.6907858    1.1163571 
       57.95   -1.0002935    1.6034165    1.2824722 
          58   -1.0225038    1.6824636    0.8284914 
       58.05   -1.0537767    1.6904241   0.66064662 
        58.1    -1.093472    1.7050066   0.59273221 
       58.15   -1.1352803    1.6550253   0.83334297 
        58.2   -1.1744479    1.5350918    1.3008121 
       58.25   -1.2120855    1.5175703    1.2842836 
        58.3   -1.2532679    1.5770183   0.98554598 
       58.35    -1.293711    1.5165803    1.2005388 
        58.4   -1.3270351     1.482977    1.3373167 
       58.45   -1.3515331    1.4499135     1.409242 
        58.5   -1.3754138    1.4730259    1.2308046 
       58.55   -1.3968961    1.5265319   0.92106977 
        58.6   -1.4169756    1.5690561   0.71966706 
       58.65   -1.4357076     1.449418    1.1378272 
        58.7   -1.4500968    1.4043992    1.1802945 
       58.75   -1.4618649    1.4768723    0.7496896 
        58.8     -1.47065    1.3848735    1.0057674 
       58.85   -1.4737551    1.3956916   0.97729414 
        58.9   -1.4738589    1.3863058     1.032872 
       58.95   -1.4745769    1.4584725   0.76631731 
          59   -1.4704295    1.3884236     1.062829 
       59.05   -1.4639582    1.4309063   0.86835901 
        59.1   -1.4559241    1.3326253    1.2659021 
       59.15   -1.4451653    1.4577731   0.84399302 
        59.2   -1.4307971    1.5245259   0.62722995 
       59.25   -1.4156721    1.4327416    1.0567397 
        59.3   -1.4016013    1.4806603     0.945839 
       59.35   -1.3835365    1.5286307   0.82384476 
        59.4   -1.3703938    1.5271361   0.94112461 
       59.45   -1.3560251     1.469817    1.2715645 
        59.5   -1.3385245    1.4839204    1.2378362 
       59.55   -1.3204421    1.4585067    1.3863661 
        59.6    -1.301578    1.6172904   0.74273582 
       59.65   -1.2845487    1.6180221   0.72105683 
        59.7    -1.269845    1.5421585    1.1555032 
       59.75   -1.2568452    1.5320434    1.4327798 
        59.8   -1.2438642    1.6344485    1.0858588 
       59.85    -1.234395    1.5954048    1.1689922 
        59.9   -1.2226525    1.6261331    1.0402583 
       59.95   -1.2157466    1.5946724      1.31319 
          60   -1.2104965    1.5818745    1.4687283 
       60.05   -1.2045799    1.6169793    1.3536889 
        60.1   -1.2038619    1.5176515    1.7083095 
       60.15   -1.2058732    1.6190455    1.2088009 
        60.2   -1.2118738    1.5395151    1.4184165 
       60.25   -1.2216284    1.5768842    1.2235059 
        60.3   -1.2372522    1.5777352    1.1431494 
       60.35   -1.2533155     1.572337    1.1647852 
        60.4   -1.2759105    1.5277542    1.3286117 
       60.45     -1.30159    1.5972246   0.93693583 
        60.5   -1.3342372    1.5049723    1.2237076 
       60.55   -1.3651351    1.4855252    1.2878264 
        60.6   -1.3964702    1.4239779    1.4132249 
       60.65   -1.4293987    1.5365328   0.79620299 
        60.7   -1.4669483    1.5043524   0.76848115 
       60.75   -1.5035585    1.4746389   0.72208552 
        60.8    -1.539713    1.4694837   0.64758701 
       60.85   -1.5697349    1.3146705    1.2728767 
        60.9   -1.5919466    1.3679706   0.98501755 
       60.95   -1.6124974     1.420135   0.60704521 
          61   -1.6308814    1.3418546   0.85445662 
       61.05   -1.6424833    1.3842937   0.68996074 
        61.1   -1.6499367    1.3738522   0.73646712 
       61.15   -1.6571337    1.3766279   0.76738199 
        61.2   -1.6626409    1.4170139   0.71017317 
       61.25   -1.6607207    1.3520854    1.0927675 
        61.3   -1.6553178    1.3359339     1.252894 
       61.35   -1.6474937     1.339674    1.2629583 
        61.4    -1.637427     1.341318    1.2641907 
       61.45   -1.6165569    1.3638618    1.1795783 
        61.5   -1.5984412    1.4053282   0.90231597 
       61.55   -1.5733806    1.4265624   0.77284008 
        61.6   -1.5441025    1.4791589   0.60975207 
       61.65   -1.5084247    1.4567988   0.81521233 
        61.7   -1.4703955    1.4778776   0.84614138 
       61.75   -1.4346956    1.4749811    1.0873635 
        61.8   -1.4007924    1.5278871    1.0622424 
       61.85   -1.3647856    1.5598856    1.0130431 
        61.9   -1.3344611    1.5358956    1.2494022 
       61.95   -1.3026292    1.4839632    1.4661556 
          62   -1.2748558     1.666076   0.72065034 
       62.05   -1.2490316    1.6170621   0.91557886 
        62.1   -1.2301958     1.642143   0.87793122 
       62.15   -1.2179209    1.5960902    1.0787982 
        62.2   -1.2077167    1.6144546    1.0574679 
       62.25   -1.2019378    1.5685753    1.2510864 
        62.3   -1.1985192    1.5826784    1.1313753 
       62.35   -1.1981962    1.5705282    1.1309014 
        62.4   -1.2011508    1.5127686     1.352228 
       62.45   -1.2042553    1.5183594     1.378855 
        62.5   -1.2082207    1.5356482    1.3478469 
       62.55   -1.2119324    1.5854417    1.1906693 
        62.6   -1.2191118    1.4985568    1.4363098 
       62.65   -1.2282555    1.4844501    1.4192481 
        62.7    -1.237835    1.5035999    1.3516395 
       62.75   -1.2414059    1.4779219    1.4024872 
        62.8   -1.2503821    1.5766201   0.93731817 
       62.85   -1.2617739    1.5107761    1.0814947 
        62.9    -1.272164    1.5290698   0.88558014 
       62.95    -1.283918    1.5109152    0.8928351 
          63   -1.2963902    1.4882586   0.88825983 
       63.05   -1.3075101    1.5520069   0.56044036 
        63.1   -1.3206499    1.5335231   0.55948646 
       63.15    -1.338733    1.4570766    0.8452075 
        63.2   -1.3577231    1.3928015    1.1213248 
       63.25   -1.3791913    1.4399646   0.83629232 
        63.3   -1.4079262    1.4853515    0.4892246 
       63.35   -1.4385102    1.4040889   0.66203014 
        63.4   -1.4756567     1.365252   0.65334178 
       63.45    -1.519154    1.3080549   0.71157463 
        63.5   -1.5646246    1.3771786   0.28520751 
       63.55   -1.6104984    1.2926872   0.51616446 
        63.6   -1.6496021    1.2090617   0.71721078 
       63.65   -1.6882299     1.282654   0.25643057 
        63.7   -1.7139056    1.2279863   0.44439786 
       63.75   -1.7337939    1.1632711   0.77816985 
        63.8   -1.7476144    1.2150672   0.57992735 
       63.85   -1.7566775    1.2256643   0.51801171 
        63.9   -1.7562324    1.2188482   0.66690529 
       63.95   -1.7488231    1.1572852    1.0007568 
          64   -1.7338516    1.2053169   0.82154824 
       64.05   -1.7125476    1.2708904   0.61600389 
        64.1   -1.6827458    1.2540138    0.7925079 
       64.15   -1.6475508    1.3709489   0.43612386 
        64.2    -1.607133    1.2923186   0.92553023 
       64.25   -1.5632508    1.3703157   0.86459107 
        64.3   -1.5165648    1.3749048   0.97281191 
       64.35   -1.4676824    1.4772209   0.68370237 
        64.4   -1.4247983    1.4715738   0.79563641 
       64.45   -1.3873278    1.4347629    1.0807082 
        64.5   -1.3514668    1.4505131    1.0427535 
       64.55   -1.3201156    1.4969145   0.90054996 
        64.6   -1.2934531     1.503786    1.0312019 
       64.65   -1.2729578    1.4500759    1.3410946 
        64.7   -1.2507677     1.529166    1.1477009 
       64.75   -1.2347334     1.542821     1.273695 
        64.8    -1.218448    1.5747271    1.3024282 
       64.85   -1.2033499    1.4626855    1.8778043 
        64.9   -1.1873815    1.5067361    1.7417981 
       64.95    -1.176996    1.6825829     1.018523 
          65   -1.1726201    1.6660608    1.0606933 
       65.05   -1.1732755    1.6076048    1.2433814 
        65.1   -1.1761184    1.5969149    1.2668724 
       65.15   -1.1833663    1.6352268    1.0195579 
        65.2    -1.193074    1.6786452   0.71079485 
       65.25   -1.2100796    1.6340696   0.94113067 
        65.3   -1.2333872    1.5485035    1.4451823 
       65.35     -1.25571    1.4798189    1.7467627 
        65.4    -1.276893    1.4756717    1.5690819 
       65.45   -1.3002934    1.5610208    1.0400348 
        65.5   -1.3253077     1.512846    1.0725584 
       65.55   -1.3489142    1.4510024    1.2333008 
        65.6   -1.3722678    1.5207334   0.87633798 
       65.65   -1.3990971    1.5216387   0.81085087 
        65.7   -1.4200568    1.4258806    1.1494888 
       65.75   -1.4431312    1.4088123    1.1067389 
        65.8   -1.4674741     1.545148   0.38635163 
       65.85   -1.4906226    1.4160701   0.79947384 
        65.9   -1.5109029    1.4616251   0.58002275 
       65.95   -1.5300253    1.4782364   0.50405593 
          66   -1.5454448    1.3417924    1.0699035 
       66.05   -1.5620177    1.4194104   0.70509341 
        66.1   -1.5730438    1.4548014   0.46238546 
       66.15   -1.5851537    1.3891794   0.67420662 
        66.2   -1.5952145    1.3611486    0.7859614 
       66.25   -1.5999823    1.3932972   0.69829806 
        66.3   -1.6055865    1.3927877   0.71391718 
       66.35   -1.6055949    1.3493438   0.85360923 
        66.4    -1.604599    1.3645837   0.78787923 
       66.45   -1.6002087    1.4385065   0.54871141 
        66.5   -1.5871762    1.4862793   0.45904387 
       66.55   -1.5717999     1.425865    0.8447044 
        66.6   -1.5505189    1.4371421    1.0224906 
       66.65   -1.5189809    1.4057049    1.3348873 
        66.7   -1.4805539    1.4366677    1.3053395 
       66.75   -1.4277929    1.4969403    1.1720487 
        66.8    -1.364995    1.4923595    1.3920516 
       66.85   -1.3041975    1.5860431     1.262459 
        66.9   -1.2448361    1.6576549    1.1896452 
       66.95   -1.1887142    1.5741016    1.7126886 
          67   -1.1412045    1.7182972     1.277302 
       67.05   -1.1018311    1.7408407    1.3495998 
        67.1   -1.0732856    1.7472824    1.4837484 
       67.15   -1.0557513    1.7466901    1.5422159 
        67.2   -1.0497262    1.7101693    1.6121222 
       67.25   -1.0511551    1.7669013    1.2657969 
        67.3   -1.0587768    1.7436361    1.3179728 
       67.35   -1.0740749    1.6571949    1.7218057 
        67.4    -1.095162    1.6529138    1.6821367 
       67.45   -1.1242012    1.6790916    1.4539645 
        67.5   -1.1567359    1.6903404     1.261066 
       67.55   -1.1974849    1.6282707    1.3849786 
        67.6   -1.2384042    1.6116145    1.4229744 
       67.65   -1.2792247    1.5184859    1.6707617 
        67.7   -1.3213262    1.5172231    1.4621228 
       67.75   -1.3616728      1.57918   0.98371679 
        67.8   -1.3958375    1.4670482    1.2171435 
       67.85   -1.4280567    1.5008165   0.95716425 
        67.9   -1.4585129    1.4463547    1.0194985 
       67.95   -1.4797004     1.428135   0.97425332 
          68   -1.4988383    1.3996591   0.96628808 
       68.05   -1.5110023    1.3710213   0.95968947 
        68.1   -1.5225502    1.4925425   0.42300659 
       68.15   -1.5335822     1.456865    0.6456903 
        68.2   -1.5439188    1.4099388    1.0550942 
       68.25   -1.5442499    1.4033793     1.174744 
        68.3   -1.5453351    1.4319443   0.96182923 
       68.35   -1.5442959    1.3987487    1.0317735 
        68.4   -1.5423568    1.3700747    1.1414499 
       68.45    -1.540853    1.3949561   0.95843736 
        68.5   -1.5294059    1.4206697   0.74876544 
       68.55   -1.5158818    1.3649832   0.96977856 
        68.6   -1.5074815    1.3246447    1.1336974 
       68.65   -1.4889908    1.5022755   0.42469362 
        68.7   -1.4644557    1.4050015   0.93710423 
       68.75   -1.4461903    1.3467155    1.2855029 
        68.8   -1.4225641    1.4564844   0.87349481 
       68.85   -1.3980531    1.4741915   0.78712295 
        68.9   -1.3714667    1.4669754   0.88957683 
       68.95   -1.3440227    1.4174192    1.1165229 
          69   -1.3121766     1.566572   0.60201678 
       69.05   -1.2842162    1.4772489    1.1071592 
        69.1   -1.2579992    1.4602874    1.3503443 
       69.15   -1.2374891    1.4839635    1.2966816 
        69.2   -1.2166592    1.5668856   0.94885214 
       69.25   -1.2009675    1.5740475   0.91587313 
        69.3   -1.1882811    1.5593081   0.93522468 
       69.35   -1.1800952    1.6789893   0.47977703 
        69.4   -1.1749756    1.6286864   0.82163145 
       69.45   -1.1786229    1.5583689    1.2198765 
        69.5   -1.1814236    1.6118565    1.0431632 
       69.55   -1.1885387    1.5995426    1.0958327 
        69.6   -1.2005553    1.4975818    1.5235109 
       69.65   -1.2098112    1.5246807     1.331147 
        69.7   -1.2179949    1.5707843    1.0600848 
       69.75   -1.2282367    1.5064874    1.2448093 
        69.8   -1.2348977    1.5568905   0.95586822 
       69.85   -1.2451595    1.5420172   0.87924092 
        69.9   -1.2501036    1.4804705   0.99104055 
       69.95   -1.2575765     1.422318    1.1007403 
          70   -1.2653919    1.3920205    1.1108901 
       70.05   -1.2656258    1.3831734     0.982087 
        70.1   -1.2637256    1.5203591   0.34011159 
       70.15   -1.2641649    1.4395665   0.63674014 
        70.2   -1.2567407    1.4234186   0.75732506 
       70.25   -1.2513658    1.4548051   0.62541711 
        70.3   -1.2446224    1.4951402   0.49625242 
       70.35   -1.2369336    1.4781925   0.65974348 
        70.4   -1.2236566    1.4221018   0.97104551 
       70.45   -1.2123342    1.4480892   0.96452592 
        70.5   -1.1997926    1.4944955   0.84544368 
       70.55   -1.1861863    1.5472615   0.61373777 
        70.6   -1.1691634    1.4872904   0.86260623 
       70.65   -1.1540306    1.5100572   0.90212657 
        70.7   -1.1390871     1.424262    1.3236435 
       70.75   -1.1242332     1.533663    1.0278767 
        70.8   -1.1042383    1.4555899    1.4201756 
       70.85    -1.085307    1.5349679    1.2171007 
        70.9   -1.0629982     1.572266    1.1326124 
       70.95   -1.0408452    1.5982593    1.1593326 
          71   -1.0132719     1.557806     1.414137 
[...]
   27130   -1.1245026    1.5542947   0.44000147   0.54877505 
   27140   -1.1091525     1.445888   0.93038986   0.54926134 
   27150   -1.0948113    1.4057825    1.1683185   0.54976894 
   27160   -1.0802123    1.4857952   0.99278324   0.55025121 
   27170   -1.0636046    1.4950815    1.0548359   0.55073254 
   27180   -1.0527628     1.501093    1.0158297    0.5512049 
   27190   -1.0449352    1.5172992   0.93237267   0.55168031 
   27200   -1.0378939    1.5495713   0.77610167   0.55217335 
   27210   -1.0313281    1.5955614   0.60429203   0.55270472 
   27220   -1.0277104    1.4282167    1.3577918   0.55329617 
   27230   -1.0232911     1.416668    1.4052105   0.55383541 
   27240   -1.0170097    1.5252551   0.92370948   0.55429962 
   27250   -1.0112404    1.5284054   0.94593905   0.55477245 
   27260   -1.0070513    1.5492953   0.97010462   0.55524962 
   27270   -1.0046669    1.5588526    1.0619087   0.55572704 
   27280   -1.0036877    1.4857878     1.476418    0.5561831 
   27290   -1.0060366     1.566015     1.188008   0.55654392 
   27300   -1.0065199     1.613701   0.93452823   0.55685529 
   27310   -1.0130248    1.6216908   0.83130533    0.5571769 
   27320   -1.0227123    1.5633526    1.0374446   0.55751554 
   27330   -1.0311099    1.5766822    1.0138948   0.55784341 
   27340   -1.0404257    1.5520682    1.0672501   0.55816662 
   27350   -1.0520288    1.5498196    1.0792572   0.55848135 
   27360   -1.0654155    1.6232381   0.75494031   0.55877855 
   27370   -1.0823664    1.5699179   0.97266675   0.55910814 
   27380   -1.1009363    1.4894114     1.283295   0.55944857 
   27390   -1.1195482    1.5346113   0.99856259   0.55974432 
   27400   -1.1435581    1.5711113   0.73751961   0.56003802 
   27410   -1.1674465    1.5313301   0.74274381   0.56037616 
   27420    -1.186882    1.4147996    1.0772344   0.56075786 
   27430   -1.2077587    1.4533731   0.91704612   0.56113834 
   27440   -1.2245939    1.4005874    1.1245402   0.56151993 
   27450   -1.2373192    1.4274942   0.90176126   0.56187832 
   27460   -1.2577802    1.5076839   0.42236432   0.56225927 
   27470   -1.2763344    1.5195592   0.31157072   0.56274891 
   27480   -1.2914741    1.4051568   0.78115509   0.56335507 
   27490   -1.3043304    1.4550067   0.59357368   0.56402301 
   27500    -1.315124    1.4275002   0.67223828   0.56476563 
   27510   -1.3249556    1.3729776   0.83938711   0.56556421 
   27520   -1.3308104    1.4314568   0.59268109   0.56640232 
   27530   -1.3404683    1.4532138   0.48779921   0.56732443 
   27540   -1.3436622    1.3868099   0.82716295   0.56834312 
   27550   -1.3481491    1.4287652   0.80003141   0.56941578 
   27560   -1.3514361    1.4608323   0.66562116   0.57053054 
   27570   -1.3557334    1.4679176   0.70344877   0.57170936 
   27580   -1.3589589    1.4843811   0.83210538   0.57295096 
   27590   -1.3620917    1.4542645     1.059038   0.57422505 
   27600   -1.3630547    1.4369946    1.1848961   0.57549381 
   27610   -1.3584713    1.3976134    1.3544817   0.57672329 
   27620   -1.3505989    1.4343242    1.1848835   0.57789811 
   27630    -1.343525    1.5185058   0.86534008   0.57904182 
   27640   -1.3372231    1.5003811    1.0396951   0.58019977 
   27650   -1.3292727    1.3723213     1.679283   0.58134767 
   27660   -1.3153529    1.5181031    1.2297852   0.58238647 
   27670   -1.2974412    1.5602914    1.0560703   0.58335995 
   27680   -1.2814784    1.4678772    1.3498193   0.58431238 
   27690   -1.2669855    1.4608281    1.3062898   0.58520231 
   27700   -1.2487919    1.4716426    1.1041997   0.58602523 
   27710   -1.2341841    1.4916596     0.964082   0.58683253 
   27720   -1.2136144    1.5633848   0.76333117   0.58765236 
   27730   -1.1891237    1.5481041    1.0413285   0.58850971 
   27740   -1.1666594    1.5156905    1.3729813   0.58936566 
   27750   -1.1448289     1.544144    1.3050835   0.59015872 
   27760   -1.1268692    1.5919661    1.0952514   0.59088858 
   27770   -1.1072338     1.569219    1.2248138    0.5915849 
   27780   -1.0902348     1.614091    1.1520525   0.59223972 
   27790   -1.0760353    1.7033457    0.9675338    0.5928582 
   27800   -1.0685859    1.6418384    1.3784448   0.59346383 
   27810    -1.061348    1.6194057    1.5552443   0.59399369 
   27820   -1.0592091    1.7445747    1.1428559   0.59442693 
   27830   -1.0629282    1.5958151    1.8171829    0.5948018 
   27840    -1.072106    1.5707161    1.9646434   0.59502683 
   27850   -1.0884331    1.5355603    1.9609157   0.59506695 
   27860   -1.1075587    1.6034321    1.4423166   0.59493074 
   27870   -1.1336382    1.5779108    1.3324917   0.59469435 
   27880   -1.1568513    1.5916728    1.0639363   0.59438845 
   27890   -1.1876128    1.5501783    1.0343964   0.59405605 
   27900   -1.2187371    1.5400125    1.0341198   0.59371836 
   27910   -1.2496534    1.5345014   0.98810506   0.59336763 
   27920    -1.286559    1.4851188    1.1109338   0.59301291 
   27930   -1.3251518    1.5158539    1.0149812   0.59263354 
   27940   -1.3601872    1.5419283   0.96119901   0.59224107 
   27950   -1.3932807    1.4385232    1.3917187   0.59184506 
   27960   -1.4267355    1.4482143    1.2707833   0.59137619 
   27970   -1.4592353    1.5199168   0.88335955   0.59084975 
   27980   -1.4886684    1.4805751   0.98570222   0.59033092 
   27990    -1.515347    1.3512894    1.3929911   0.58980038 
   28000   -1.5387303    1.4343066   0.98161255      0.58922 
   28010   -1.5586233    1.3685079    1.1110704   0.58862763 
   28020    -1.572612    1.3483796    1.0049742   0.58800257 
   28030    -1.583997    1.4275574   0.47496422   0.58738397 
   28040   -1.5916694    1.4407079   0.30810581   0.58685604 
   28050   -1.5961575    1.3324151    0.7601635   0.58645214 
   28060   -1.5956125    1.3326382   0.85183187   0.58611509 
   28070   -1.5907629    1.3728751   0.77557395   0.58580736 
   28080   -1.5842392    1.3334502   0.97220545    0.5855287 
   28090   -1.5686004    1.3223046   0.93735114   0.58525974 
   28100   -1.5503084    1.3556538   0.64719666   0.58500598 
   28110   -1.5257649    1.3774478   0.58027316   0.58482191 
   28120   -1.5020473    1.3226102   0.95168648   0.58471452 
   28130    -1.472785    1.3408286    1.0160321   0.58462705 
   28140   -1.4394491    1.3860881   0.96099016   0.58453801 
   28150   -1.4030341    1.4557043   0.84019309   0.58445298 
   28160   -1.3663982    1.4571803    1.0121166   0.58439227 
   28170   -1.3309332    1.5459726   0.77195532   0.58433811 
   28180   -1.2967233    1.4405507    1.2274183   0.58430181 
   28190   -1.2663215     1.556374   0.92202742   0.58424672 
   28200   -1.2424066    1.5059024    1.2974399   0.58419418 
   28210   -1.2281785    1.5892868    1.0614432    0.5840957 
   28220   -1.2165213    1.5088793    1.2931653    0.5839623 
   28230   -1.2094875    1.6879852   0.50168673     0.583805 
   28240   -1.2081434    1.5305946    1.1563567   0.58371908 
   28250    -1.206769    1.4890835    1.4296996   0.58361572 
   28260   -1.2062016    1.5312126    1.3023609   0.58343693 
   28270   -1.2057616    1.4430406    1.5828535   0.58318722 
   28280   -1.2013399    1.5408671    1.1347437   0.58284219 
   28290   -1.2022546    1.5827684   0.89317928   0.58245613 
   28300    -1.204354    1.5379266    1.0740349   0.58207271 
   28310   -1.2128652    1.5005569    1.3257034   0.58167577 
   28320   -1.2174059    1.6182054   0.78332139   0.58122349 
   28330   -1.2282975    1.6145177   0.66750085   0.58079086 
   28340   -1.2371431    1.4711571    1.2644978   0.58040266 
   28350   -1.2439728    1.4619487     1.334554   0.57996537 
   28360   -1.2514221    1.5116964   0.98819216   0.57946433 
   28370   -1.2595237    1.5188555   0.79667817   0.57895651 
   28380   -1.2689485    1.3919309    1.2437946   0.57847751 
   28390   -1.2784014    1.5064732   0.65481075   0.57796704 
   28400   -1.2845651    1.5808601   0.29342782   0.57750535 
   28410   -1.2923157    1.5076932   0.61549631   0.57716302 
   28420   -1.3005409    1.4984486   0.75817533   0.57690038 
   28430   -1.3077382    1.3861422    1.2891135    0.5766784 
   28440   -1.3152776    1.4487503    1.0209513   0.57641745 
   28450    -1.321054    1.5440219   0.56403123   0.57615991 
   28460    -1.327083    1.5142819   0.71412835   0.57597712 
   28470   -1.3373088    1.4612315   0.95715126   0.57584542 
   28480    -1.344214    1.4781043   0.91758548   0.57572938 
   28490   -1.3539064    1.3838257    1.2974671   0.57561856 
   28500   -1.3585201    1.3936017    1.2057479   0.57543961 
   28510   -1.3605007    1.4431679   0.83625517   0.57521287 
   28520   -1.3620768    1.4903289   0.54341889   0.57501904 
   28530   -1.3649424    1.5478888   0.28597931   0.57491305 
   28540   -1.3675027    1.4985063   0.60205517   0.57493618 
   28550   -1.3693229    1.4471895   0.85886314   0.57503338 
   28560   -1.3684016     1.433084   0.85654579    0.5751503 
   28570   -1.3666253    1.4756272   0.57808098   0.57530744 
   28580   -1.3666282    1.5405481    0.2523853   0.57556203 
   28590   -1.3643165    1.4145686   0.74577291   0.57594102 
   28600   -1.3591062    1.4280616    0.7599739    0.5763874 
   28610    -1.351362    1.5468511   0.30384887   0.57690365 
   28620   -1.3443466    1.4665036   0.70843577   0.57754527 
   28630   -1.3346228    1.4781233   0.77612887   0.57826089 
   28640   -1.3221121     1.485238   0.88406825   0.57903543 
   28650   -1.3074262     1.462287    1.0881848   0.57984691 
   28660   -1.2944579    1.5230035   0.90920272   0.58065877 
   28670   -1.2755421    1.5595977   0.90744544   0.58149519 
   28680   -1.2610515    1.4880507    1.3019364   0.58235981 
   28690   -1.2403353     1.462035    1.5551039   0.58318547 
   28700    -1.219407    1.4938836    1.6494412   0.58392193 
   28710   -1.1959157    1.4749944    1.6594202   0.58454777 
   28720   -1.1743067    1.7063594   0.65773157   0.58508399 
   28730   -1.1503001     1.538891    1.3080199   0.58565809 
   28740   -1.1318338    1.5967927    1.0732383   0.58621568 
   28750   -1.1208427    1.6389268   0.86172825   0.58676535 
   28760   -1.1067458    1.6601145   0.84650333    0.5873424 
   28770   -1.0962791    1.5771857    1.2263836   0.58795151 
   28780   -1.0912916    1.5880507     1.182713   0.58853679 
   28790   -1.0910613    1.6616807   0.95358063   0.58910601 
   28800   -1.0901379    1.6425301    1.1812131   0.58968869 
   28810   -1.0986856    1.6478168    1.2472179   0.59024333 
   28820   -1.1077181    1.4892047    1.8506636   0.59073418 
   28830   -1.1232249    1.5454202    1.4723566   0.59109545 
   28840   -1.1396413    1.6010153    1.1400592   0.59136803 
   28850   -1.1620418    1.5897789    1.1934686   0.59161088 
   28860   -1.1870441    1.5782026    1.2919705   0.59182303 
   28870   -1.2208528    1.5453038    1.3631844   0.59198761 
   28880   -1.2548201    1.6323469   0.86371646   0.59209708 
   28890   -1.2958574     1.626357   0.74292567   0.59222284 
   28900   -1.3439816    1.4992473    1.1674011   0.59238885 
   28910   -1.3861805    1.4329054    1.3519404   0.59252423 
   28920   -1.4252982    1.4377702    1.2547534   0.59260404 
   28930   -1.4628116    1.4172977    1.2375087   0.59263462 
   28940   -1.4951173    1.4200601     1.071454   0.59261992 
   28950   -1.5213204    1.3969818    1.0454437   0.59259448 
   28960    -1.542886    1.4336107   0.86403799   0.59255507 
   28970    -1.562869    1.3919964    1.0868185   0.59252424 
   28980   -1.5749656    1.3665666    1.2034423   0.59247968 
   28990   -1.5792276    1.3138446       1.2423   0.59238833 
   29000   -1.5855375    1.3612153   0.87841265   0.59225832 
   29010   -1.5879304    1.3610459    0.7560731    0.5921499 
   29020   -1.5860286    1.3286105   0.84209794   0.59207933 
   29030   -1.5769411    1.3218563   0.85358917   0.59203143 
   29040   -1.5663998     1.423062   0.48006991   0.59202489 
   29050   -1.5516476    1.3965826   0.66605496   0.59210847 
   29060   -1.5331583    1.4744031   0.50408408   0.59226615 
   29070   -1.5133124    1.4344445   0.77696445   0.59250615 
   29080     -1.49379    1.4767268   0.78928004    0.5928081 
   29090   -1.4741279    1.4911524   0.83068514   0.59316282 
   29100   -1.4543868    1.4365565    1.1354039   0.59355476 
   29110   -1.4347556    1.4362114    1.2081114   0.59393729 
   29120   -1.4130688    1.4699344    1.0713769   0.59428278 
   29130    -1.391721    1.4663258    1.1452196   0.59461681 
   29140   -1.3713727    1.4523252    1.2217254   0.59492317 
   29150   -1.3481284    1.5245648    1.0463571   0.59518978 
   29160   -1.3248389    1.4487309    1.4968954   0.59543459 
   29170   -1.3038005     1.540808     1.155544   0.59559637 
   29180   -1.2824913    1.5369457    1.1807482   0.59571465 
   29190    -1.267046    1.5604296    1.1271058   0.59580513 
   29200   -1.2524736    1.4214964    1.7400176   0.59584697 
   29210   -1.2443498    1.5839292    1.1585604    0.5957891 
   29220   -1.2347308    1.4816973    1.6203017   0.59567999 
   29230   -1.2309433    1.5826965    1.3066242   0.59546662 
   29240   -1.2300323    1.4636874     1.769232   0.59516178 
   29250    -1.225387    1.5733709    1.2545604   0.59471996 
   29260   -1.2251409    1.5865048    1.1602226   0.59421051 
   29270   -1.2260375    1.5515572    1.3125486   0.59364987 
   29280   -1.2286162    1.4984198    1.4811953    0.5930064 
   29290   -1.2342041    1.5130315    1.3279597   0.59225967 
   29300   -1.2399371    1.5843554   0.98611058   0.59143758 
   29310   -1.2452012     1.523332    1.2151998   0.59059225 
   29320   -1.2533172    1.5102886    1.2999675   0.58969809 
   29330   -1.2586116    1.5491401    1.1314013   0.58872352 
   29340    -1.263857    1.5598139    1.0184548   0.58769392 
   29350   -1.2730894    1.4833825    1.1786981   0.58662285 
   29360   -1.2810773    1.5699491   0.79999795   0.58551102 
   29370   -1.2888702    1.4590135    1.2400347   0.58440802 
   29380     -1.29868    1.4569485    1.1772095   0.58325375 
   29390   -1.3040744    1.4848331   0.92946537   0.58204729 
   29400   -1.3083391    1.5453088   0.63073961   0.58083181 
   29410   -1.3152859    1.4766664   0.98799532   0.57965457 
   29420    -1.320301    1.4157202    1.3268535   0.57846918 
   29430   -1.3250869    1.4795172    1.0823809   0.57721327 
   29440   -1.3279667    1.5195764   0.85689848   0.57592011 
   29450   -1.3284727     1.444921    1.0966714   0.57462281 
   29460   -1.3286577    1.4369209    1.0798929    0.5732952 
   29470   -1.3337367    1.4386741   0.94204287   0.57193566 
   29480   -1.3281998    1.5438302   0.42991171   0.57057342 
   29490   -1.3232539    1.4895822   0.66898246   0.56928754 
   29500   -1.3200878     1.481466   0.79898435   0.56805906 
   29510   -1.3195125    1.4519869   0.95742531    0.5668511 
   29520   -1.3148212    1.4847334   0.89553857   0.56563756 
   29530   -1.3084137    1.4574602    1.0498447   0.56442603 
   29540   -1.2990387    1.3732824     1.405967   0.56319977 
   29550   -1.2897628    1.3559792    1.4286412   0.56189601 
   29560   -1.2705902    1.4573986    0.9181729   0.56050261 
   29570   -1.2454523     1.422624   0.91540689    0.5590952 
   29580   -1.2127854    1.5476286   0.43576881   0.55771274 
   29590     -1.17262    1.4587343   0.85053453   0.55640944 
   29600   -1.1307317    1.5184079   0.76676525   0.55514399 
   29610   -1.0828722     1.568958   0.70908647   0.55390981 
   29620   -1.0313563    1.5138682    1.1164763   0.55270807 
   29630  -0.98765072    1.5331596    1.1910447   0.55148172 
   29640  -0.94018242    1.5288511    1.2692825   0.55020718 
   29650  -0.89910796    1.6088952   0.94688592   0.54888016 
   29660  -0.85800721    1.6546551   0.78249094   0.54755042 
   29670   -0.8257823    1.6455054   0.90978876   0.54625446 
   29680  -0.80592398     1.671815   0.86540799   0.54497075 
   29690  -0.79103378    1.6202685    1.0792517   0.54369057 
   29700  -0.78151042     1.621423    1.1853706   0.54238533 
   29710  -0.77996801    1.6382977    1.1902692   0.54104426 
   29720  -0.78817106    1.7016101   0.88832757   0.53966703 
   29730  -0.79699992    1.6415362    1.0555662   0.53828702 
   29740  -0.81166349    1.5538775    1.3153328   0.53687968 
   29750  -0.82466482    1.5854365    1.0948473   0.53541829 
   29760  -0.84224972    1.5557057    1.0323094   0.53393706 
   29770  -0.85649859    1.5499649   0.86594554    0.5324502 
   29780  -0.87176683    1.5692906   0.72229915   0.53099515 
   29790  -0.88778105    1.5471564   0.67481086   0.52958144 
   29800  -0.90121252    1.5644237    0.5386106   0.52822574 
   29810  -0.91906473     1.498171   0.78355685    0.5269605 
   29820  -0.93529593     1.435368    1.0485725   0.52574219 
   29830  -0.94899158    1.4778795   0.87064831   0.52452227 
   29840  -0.96096026     1.435383   0.92599261   0.52331527 
   29850  -0.97335354    1.4576018   0.71287528   0.52212725 
   29860  -0.98192126     1.536742   0.32213906   0.52099468 
   29870  -0.98883849    1.4178124   0.69802365   0.51997029 
   29880  -0.99394941    1.4564571   0.52666852   0.51902129 
   29890  -0.99723527    1.4351943   0.55207457   0.51815286 
   29900  -0.99953162    1.4015395   0.54247576    0.5173634 
   29910   -1.0000442    1.4659226   0.25855005   0.51666879 
   29920  -0.99507159       1.3359   0.72368844   0.51610178 
   29930  -0.98882677    1.4482525   0.36722609   0.51561139 
   29940  -0.97716108     1.465924   0.33752968   0.51523378 
   29950  -0.96711002    1.4826162   0.41351259   0.51499021 
   29960  -0.95319284    1.4235491   0.77585879   0.51485455 
   29970  -0.93799637    1.5104051   0.56549994   0.51477195 
   29980  -0.92101657    1.5060328   0.58624502    0.5147618 
   29990  -0.90197311    1.5411595   0.47229484   0.51483626 
   30000  -0.88026778    1.5531818   0.51116294   0.51501667 
Loop time of 5.42895 on 8 procs for 30000 steps with 125 atoms

Performance: 2387202.333 tau/day, 5525.931 timesteps/s
95.0% CPU use with 1 MPI tasks x 8 OpenMP threads

MPI task timing breakdown:
Section |  min time  |  avg time  |  max time  |%varavg| %total
---------------------------------------------------------------
Pair    | 1.8216     | 1.8216     | 1.8216     |   0.0 | 33.55
Neigh   | 0.04157    | 0.04157    | 0.04157    |   0.0 |  0.77
Comm    | 0.13685    | 0.13685    | 0.13685    |   0.0 |  2.52
Output  | 0.082429   | 0.082429   | 0.082429   |   0.0 |  1.52
Modify  | 3.3195     | 3.3195     | 3.3195     |   0.0 | 61.14
Other   |            | 0.02694    |            |       |  0.50

Nlocal:        125.000 ave         125 max         125 min
Histogram: 1 0 0 0 0 0 0 0 0 0
Nghost:        1701.00 ave        1701 max        1701 min
Histogram: 1 0 0 0 0 0 0 0 0 0
Neighs:        12243.0 ave       12243 max       12243 min
Histogram: 1 0 0 0 0 0 0 0 0 0

Total # of neighbors = 12243
Ave neighs/atom = 97.944000
Neighbor list builds = 529
Dangerous builds = 0

variable avedens equal f_aves[1]
variable avetemp equal f_aves[2]
variable avepress equal f_aves[3]
variable errdens equal sqrt(f_aves[4]-f_aves[1]*f_aves[1])
variable errtemp equal sqrt(f_aves[5]-f_aves[2]*f_aves[2])
variable errpress equal sqrt(f_aves[6]-f_aves[3]*f_aves[3])

print "Averages"
Averages
print "--------"
--------
print "Density: ${avedens}"
Density: 0.575760775972717
print "Stderr: ${errdens}"
Stderr: 0.027687521466989
print "Temperature: ${avetemp}"
Temperature: 1.49534642960111
print "Stderr: ${errtemp}"
Stderr: 0.103278295700165
print "Pressure: ${avepress}"
Pressure: 0.997861411091107
print "Stderr: ${errpress}"
Stderr: 0.358844832980478
