
### SPECIFY THE NUMBER OF PRODUCTION STEPS ###
variable Nprod equal 30000

### ASSIGN ATOMIC VELOCITIES ###
velocity all create ${T} 12345 dist gaussian rot yes mom yes
velocity all create 1.5 12345 dist gaussian rot yes mom yes

### SPECIFY ENSEMBLE ###
timestep ${timestep}
timestep 0.002
fix nve all nve

### THERMODYNAMIC OUTPUT CONTROL ###
thermo_style custom time etotal temp press
thermo 10

### RECORD TRAJECTORY ###
dump traj all custom 1000 traj.dump id x y z

### SPECIFY TIMESTEP ###
variable n_steps equal floor(50/${timestep})
variable n_steps equal floor(50/0.002)
timestep ${timestep}
timestep 0.002

### RUN SIMULATION TO MELT CRYSTAL ###
run ${n_steps}
run 25000
Last active /omp style is pair_style lj/cut/omp
Neighbor list info ...
  update every 1 steps, delay 10 steps, check yes
  max neighbors/atom: 2000, page size: 100000
  master list distance cutoff = 4.5
  ghost atom cutoff = 4.5
  binsize = 2.25, bins = 3 3 3
  1 neighbor lists, perpetual/occasional/extra = 1 0 0
  (1) pair lj/cut/omp, perpetual
      attributes: half, newton on, omp
      pair build: half/bin/atomonly/newton/omp
      stencil: half/bin/3d/newton
      bin: standard
Per MPI rank memory allocation (min/avg/max) = 10.63 | 10.63 | 10.63 Mbytes
Time TotEng Temp Press 
           0   -3.0327711          1.5   0.89516323 
        0.02   -3.0322841    1.3589453    1.6727907 
        0.04   -3.0164129   0.97461183     3.744835 
        0.06   -3.0097373   0.72006051    5.1386747 
        0.08   -3.0076487    0.8212227    4.7153542 
         0.1   -3.0058518   0.95272618     4.047665 
        0.12   -3.0049904    1.0252847    3.6515746 
        0.14   -3.0052234    1.1012808    3.2515775 
        0.16   -3.0027486     1.208193    2.6972695 
        0.18   -3.0015978    1.3381208    2.0048015 
         0.2   -3.0011451    1.4583172    1.3468571 
        0.22   -3.0011742    1.5053014    1.0609175 
        0.24   -2.9986532     1.464604    1.2509619 
        0.26   -3.0002035    1.3912462    1.6485333 
        0.28    -3.001395    1.3284307    2.0282582 
         0.3    -3.002546     1.285596    2.3044204 
        0.32   -2.9999496    1.2951293    2.3120285 
        0.34   -3.0029167    1.3331032    2.1663901 
        0.36   -3.0042092    1.3320301     2.227421 
        0.38   -3.0042979    1.2933393    2.4991487 
         0.4   -3.0032215    1.2548468    2.7777105 
        0.42   -3.0040381    1.2679499    2.7967406 
        0.44   -3.0019769    1.2995927    2.7232868 
        0.46   -3.0040518    1.3069399    2.7424118 
        0.48   -3.0050783    1.2906541    2.8385254 
         0.5   -3.0052846    1.2884024    2.8242014 
        0.52   -3.0048863    1.3208378    2.6271029 
        0.54   -3.0030216    1.3013649    2.6770942 
        0.56   -3.0017848    1.2509826     2.891487 
        0.58   -3.0041932    1.2156944    3.0499512 
         0.6   -3.0050002     1.199695    3.1045672 
        0.62   -3.0057932    1.2627469     2.768018 
        0.64   -3.0044769     1.299232    2.5530292 
        0.66   -3.0049287    1.2955869    2.5165943 
        0.68   -3.0055261    1.3264498    2.2996868 
         0.7   -3.0044794    1.3281622    2.2414705 
        0.72   -3.0033303    1.2867234     2.444151 
        0.74   -3.0030734    1.2842796    2.5163428 
        0.76   -3.0008541    1.2473568     2.762811 
        0.78   -3.0017706    1.2500306    2.7957549 
         0.8    -3.002722    1.3076034     2.521185 
        0.82   -3.0034766     1.359189     2.246106 
        0.84   -3.0011303    1.3363627    2.3287635 
        0.86   -3.0008215    1.3437763    2.3005526 
        0.88   -2.9992236    1.3434715    2.3480872 
         0.9   -2.9969996    1.3139552     2.567233 
        0.92   -2.9954477    1.2687348    2.8604631 
        0.94   -2.9946094    1.2261555    3.1117051 
        0.96   -2.9942251    1.2807311    2.8747423 
        0.98     -2.99498    1.3274458    2.6578254 
           1   -2.9955831    1.3052779    2.7886095 
        1.02   -2.9939748    1.2882324    2.9221701 
        1.04   -2.9957406    1.2872964    2.9976854 
        1.06   -2.9963086    1.1829517    3.5461475 
        1.08    -2.997394    1.1390177    3.7478287 
         1.1   -2.9960916     1.244666    3.1798356 
        1.12    -2.996077    1.3560776    2.5812593 
        1.14   -2.9971619    1.3405996    2.6317092 
        1.16   -2.9966884    1.2666244    3.0010658 
        1.18   -2.9971032    1.2283552    3.2004173 
         1.2   -2.9971716     1.223876    3.2231622 
        1.22    -2.996969    1.2117633    3.2583498 
        1.24    -2.995445    1.2408196    3.0950008 
        1.26   -2.9970625    1.2822496    2.8903244 
        1.28   -2.9961693    1.2655646    2.9971375 
         1.3   -2.9968875    1.2199103     3.216429 
        1.32   -2.9971551    1.2904571     2.828456 
        1.34   -2.9946452    1.3563223    2.4417159 
        1.36   -2.9944736    1.3331188     2.506118 
        1.38    -2.994871    1.3322321    2.5248992 
         1.4   -2.9954136    1.3057361    2.6898218 
        1.42   -2.9957386     1.304073    2.7503243 
        1.44   -2.9957148    1.2936258    2.8503129 
        1.46   -2.9969741    1.2773101    2.9503002 
        1.48   -2.9979104    1.3021869    2.8100971 
         1.5   -2.9947185    1.3419797     2.594442 
        1.52    -2.994247    1.3166163    2.7046307 
        1.54   -2.9938457     1.287779    2.8516044 
        1.56   -2.9954137    1.2666713    2.9582135 
        1.58     -2.99619    1.2255251    3.1454348 
         1.6   -2.9965289    1.2443581    3.0588673 
        1.62   -2.9955303    1.2420229    3.0855889 
        1.64   -2.9969096     1.268215    2.9910739 
        1.66   -2.9972045    1.2715214    3.0158262 
        1.68   -2.9971174    1.2204189     3.297936 
         1.7   -2.9959361    1.1982177     3.431251 
        1.72   -2.9982455    1.2145445    3.3502324 
        1.74   -2.9964422    1.2092454    3.3465356 
        1.76   -2.9967734    1.2388868    3.1752884 
        1.78   -2.9963808    1.2597079    3.0646156 
         1.8   -2.9967122    1.2518045    3.1018202 
        1.82   -2.9968842    1.2636088    3.0382905 
        1.84   -2.9978079    1.2746177    2.9438966 
        1.86   -2.9976187    1.2940359    2.7680635 
        1.88   -2.9963909    1.3564124    2.3850969 
         1.9   -2.9950137    1.3671339    2.3027243 
        1.92   -2.9946349    1.2822889    2.7359379 
        1.94   -2.9962045    1.2004612    3.1758521 
        1.96   -2.9974803    1.1677633    3.3580664 
        1.98   -2.9982328    1.2123466    3.1319393 
           2   -2.9956066    1.2584823    2.8694335 
        2.02   -2.9973909    1.2846773    2.7030114 
        2.04    -2.997996    1.3105475    2.5755824 
        2.06   -2.9986944    1.2822912     2.730337 
        2.08   -2.9980409    1.2733889    2.8152595 
         2.1    -2.998097    1.2943558    2.7633604 
        2.12   -2.9982434    1.2719229    2.9174036 
        2.14   -2.9973431    1.2010961    3.2725983 
        2.16   -2.9979464    1.2046229     3.198391 
        2.18   -2.9991681    1.3100585    2.5757012 
         2.2   -2.9983586    1.3619327    2.2094166 
        2.22    -2.997377    1.3514302    2.2056308 
        2.24   -2.9980502    1.3250136    2.3505317 
        2.26   -2.9970175    1.2752679    2.6508744 
        2.28   -2.9981092    1.2194392     2.985499 
         2.3   -2.9978152    1.2326264    2.9976473 
        2.32   -2.9993828    1.2507753    2.9498001 
        2.34   -3.0011263    1.2577336    2.9003163 
        2.36   -3.0014531    1.3138731    2.5972536 
        2.38   -2.9996705    1.3474846    2.4155083 
         2.4   -2.9982724    1.3311167    2.4866086 
        2.42   -2.9990237    1.3205874    2.5514002 
        2.44   -2.9997052    1.2568367    2.8851613 
        2.46   -3.0001319    1.2290132    3.0307467 
        2.48   -3.0011792    1.3075572    2.6426038 
         2.5   -3.0017421    1.3657433    2.3714217 
        2.52   -3.0041533    1.3446892    2.5386893 
        2.54   -3.0040542    1.3085869     2.827585 
        2.56   -3.0045741    1.2661937    3.1296675 
        2.58   -3.0029799     1.218634    3.4198222 
         2.6   -3.0024201    1.2021751    3.5212992 
        2.62   -3.0018617    1.2299562    3.3847787 
        2.64   -2.9995082    1.2225125    3.3859667 
        2.66   -2.9995735     1.225719    3.3064234 
        2.68   -2.9988832    1.2726692    3.0184007 
         2.7    -2.999758      1.27807    2.9432103 
        2.72    -3.001321    1.2721879    2.9627806 
        2.74    -3.001094     1.286029    2.9157716 
        2.76   -2.9999374    1.2900662    2.9205167 
        2.78   -2.9966226     1.256836    3.0989583 
         2.8   -2.9952745    1.2111524    3.3305785 
        2.82   -2.9945145     1.139012     3.661027 
        2.84   -2.9957538    1.1914977    3.3815327 
        2.86   -2.9955184    1.2389789    3.1048253 
        2.88   -2.9964559    1.2319926    3.1015116 
         2.9    -2.997457    1.2154513    3.1918953 
        2.92   -2.9980183    1.1511256    3.5296395 
        2.94   -2.9986443    1.1190796    3.6965124 
        2.96    -2.999717    1.1570726     3.486127 
        2.98   -2.9982595    1.2352867    3.0738661 
           3   -2.9975558     1.255221    2.9536978 
        3.02   -2.9960918    1.2449233    2.9970783 
        3.04     -2.99436    1.2703201    2.8671672 
        3.06   -2.9942424    1.3348097    2.5592417 
        3.08   -2.9958738    1.3299626    2.6041357 
         3.1   -2.9963735    1.2781102    2.9011982 
        3.12   -2.9977835    1.2287858    3.1918533 
        3.14   -3.0020367     1.214261     3.312377 
        3.16   -3.0021429    1.2358255    3.2603609 
        3.18   -3.0010596    1.2312899     3.306765 
         3.2   -2.9989994    1.2218449    3.3443645 
        3.22   -2.9982027    1.2109915    3.3434208 
        3.24   -2.9973023    1.2097583    3.2716965 
        3.26   -2.9974427    1.2191007     3.150302 
        3.28   -2.9953428    1.2316902     3.028725 
         3.3   -2.9983287    1.2690146     2.797518 
        3.32   -2.9983493     1.310369    2.6069749 
        3.34   -2.9996655     1.231338    3.0520868 
        3.36   -2.9998346    1.1484636    3.5472967 
        3.38   -2.9997851    1.1581591    3.5641624 
         3.4   -2.9999479    1.1982027    3.3707369 
        3.42   -3.0003138    1.2170384    3.2600308 
        3.44   -2.9989349    1.1432537     3.592991 
        3.46   -2.9999109    1.1505427    3.5400213 
        3.48   -3.0009874    1.2187966    3.1822716 
         3.5   -2.9995465    1.2498765    3.0033075 
        3.52   -3.0001376    1.2445766    2.9898737 
        3.54   -3.0007769    1.2480568    2.9117547 
        3.56   -3.0004097    1.2805646    2.6803538 
        3.58   -3.0008588    1.3160433    2.4509495 
         3.6   -2.9998008    1.2986031     2.514985 
        3.62   -3.0000975    1.2325051    2.8314102 
        3.64   -3.0007626    1.2267103    2.8539139 
        3.66   -3.0014504     1.271438    2.6117832 
        3.68    -3.001101     1.296744    2.4647691 
         3.7   -3.0002818    1.2680173    2.6015303 
        3.72   -2.9977745    1.2639503    2.6433439 
        3.74   -2.9977033    1.2888955    2.5432243 
        3.76   -2.9989958    1.2467782    2.7461328 
        3.78   -2.9965793    1.2860656     2.597394 
         3.8   -2.9985881    1.2659355     2.713066 
        3.82   -2.9972854    1.2404467    2.8479756 
        3.84    -2.996329    1.2370157    2.8489211 
        3.86   -2.9972283    1.2691204    2.6545121 
        3.88   -2.9968383      1.32784    2.3306918 
         3.9   -2.9962543    1.3235943    2.3186242 
        3.92   -2.9959363    1.2928108    2.4563981 
        3.94   -2.9961314    1.3055752    2.4051463 
        3.96   -2.9966284    1.3105229    2.4147134 
        3.98    -2.994695    1.3020491    2.5206459 
           4   -2.9964787    1.2721151    2.7253073 
        4.02   -2.9992559    1.2297863    2.9731856 
        4.04   -2.9987564     1.176383     3.240489 
        4.06   -2.9995158    1.1952579    3.1135637 
        4.08   -3.0002873    1.2940764    2.5785807 
         4.1   -3.0019702    1.2921048     2.530566 
        4.12    -3.000668    1.2572783    2.7028971 
        4.14    -3.000678    1.2326859    2.8751041 
        4.16    -3.002181    1.2078665     3.062717 
        4.18   -3.0022018    1.2314587    2.9859641 
         4.2   -3.0016546    1.2796916     2.733466 
        4.22   -3.0007617    1.2794797    2.6928701 
        4.24   -2.9998692    1.2861927    2.6640169 
        4.26   -2.9986745    1.2307209    2.9647418 
        4.28   -2.9985561     1.222465    3.0385481 
         4.3   -2.9999324      1.26379    2.8316322 
        4.32   -3.0002395    1.2856325    2.6815798 
        4.34   -2.9982779    1.3223287    2.4649194 
        4.36   -2.9977278    1.3583062    2.2855258 
        4.38   -2.9983292    1.3234025     2.485718 
         4.4   -2.9964486     1.278251    2.7615264 
        4.42   -2.9982007    1.2816634    2.8030782 
        4.44   -2.9989862    1.2976265    2.7935083 
        4.46   -3.0007764    1.3025504    2.8518506 
        4.48   -3.0001792    1.2362164    3.2408086 
         4.5   -2.9999937    1.1973931    3.4733697 
        4.52   -3.0001206    1.2364173    3.2972344 
        4.54   -2.9999199    1.2475836     3.206747 
        4.56   -3.0011311    1.2406025    3.1879933 
        4.58   -3.0019351    1.2306253    3.1847724 
         4.6   -3.0004597    1.2629639    3.0133134 
        4.62   -2.9987063    1.2773686    2.9726986 
        4.64   -3.0006326     1.287681    2.9945225 
        4.66    -2.999774    1.2385596    3.3016132 
        4.68   -2.9991018    1.2306439    3.3701464 
         4.7   -2.9999244    1.2718395    3.1410284 
        4.72   -3.0014306    1.2914919    2.9673884 
        4.74    -3.000301    1.3319165    2.6962397 
        4.76   -2.9978522    1.3596792    2.5060232 
        4.78    -2.998726    1.3378097    2.5700293 
         4.8   -2.9998996    1.2915156    2.7723179 
        4.82    -3.000643    1.2431529    2.9905779 
        4.84   -2.9987661     1.248103    2.9360673 
        4.86   -2.9976404    1.3354967    2.4710481 
        4.88   -2.9980287    1.3582997    2.3289924 
         4.9   -2.9975749    1.2835158    2.7044948 
        4.92   -2.9970321    1.1812896    3.2407905 
        4.94   -2.9982093    1.1186288    3.5666459 
        4.96   -2.9986218    1.1821651     3.263597 
        4.98   -2.9995391    1.2603917    2.8662048 
           5   -2.9996639    1.2924455    2.7110602 
        5.02   -3.0018293    1.2813234    2.7855811 
        5.04   -3.0007025    1.2712345    2.8655031 
        5.06   -3.0010114    1.2388671    3.0198915 
        5.08   -3.0016482    1.2490823    2.9463296 
         5.1   -3.0026133    1.2446442    2.9198405 
        5.12   -3.0043185    1.2571447    2.8130843 
        5.14    -3.002007     1.303749     2.556711 
        5.16   -3.0029958     1.341558    2.3484088 
        5.18   -3.0028305    1.3787035    2.1925634 
         5.2   -3.0012131    1.3419453    2.4448658 
        5.22   -2.9994423     1.273414    2.8817834 
        5.24   -2.9997476     1.248719    3.0931202 
        5.26   -2.9993395    1.2508698    3.1107792 
        5.28     -2.99966    1.2884236    2.9034536 
         5.3   -2.9978039    1.3206928    2.7122261 
        5.32   -2.9979702    1.3409069    2.5991722 
        5.34   -2.9964454    1.3321565    2.6357023 
        5.36   -2.9972817    1.3594535    2.5017426 
        5.38   -2.9997403    1.3617435    2.5131137 
         5.4   -2.9990558    1.2575134    3.0721947 
        5.42   -2.9985586    1.1804794    3.5201196 
        5.44   -2.9969736    1.1647275    3.6436415 
        5.46   -2.9995818    1.2053464    3.4565989 
        5.48   -2.9985089    1.2090245    3.4330967 
         5.5   -2.9977995    1.1977138    3.4743301 
        5.52   -2.9973483    1.2254493    3.3242349 
        5.54   -2.9973902    1.2363467    3.2502313 
        5.56   -2.9981998    1.2744218    3.0462168 
        5.58   -2.9982238    1.3206638    2.7966554 
         5.6   -2.9977945    1.3248979       2.7477 
        5.62   -2.9978804    1.3102501    2.7867266 
        5.64   -2.9976522    1.3232758    2.6876732 
        5.66   -2.9981115    1.3382066    2.5867446 
        5.68   -2.9985129    1.2914371    2.8142746 
         5.7   -2.9983684    1.2050469    3.2587648 
        5.72   -2.9997441    1.2157267     3.238825 
        5.74   -3.0004211     1.258279    3.0604857 
        5.76    -3.001792    1.1923657    3.3910951 
        5.78   -3.0026541    1.1756272    3.4714593 
         5.8   -3.0027057    1.2529064    3.0723752 
        5.82   -3.0022983    1.2729087    2.9116237 
        5.84   -3.0026264    1.3077813    2.6834969 
        5.86   -3.0013417    1.3242181    2.5614909 
        5.88   -2.9998072    1.2983281    2.6553279 
         5.9   -3.0001575    1.3125454    2.5699885 
        5.92   -3.0004417    1.3151647    2.5544047 
        5.94   -3.0003839    1.2774652    2.7502286 
        5.96   -3.0004459    1.2674823    2.8379548 
        5.98   -2.9997566    1.2427597     3.001899 
           6   -2.9982134    1.2327764    3.0661586 
        6.02   -2.9991176    1.3195602    2.6303311 
        6.04    -2.999489    1.3704208    2.3682602 
        6.06   -2.9976367    1.2967983    2.7433433 
        6.08   -2.9970652     1.223037    3.1495438 
         6.1   -2.9953486    1.2087751    3.2670094 
        6.12   -2.9968838    1.1921921    3.3627921 
        6.14   -2.9948042    1.2062064    3.2975772 
        6.16   -2.9960619    1.2309148    3.1733299 
        6.18   -2.9955547    1.2143885    3.2560625 
         6.2   -2.9961084    1.2211598    3.2360362 
        6.22   -2.9953252    1.2279069    3.2122342 
        6.24   -2.9951761    1.2291761    3.2118667 
        6.26   -2.9933576    1.2304287    3.2148744 
        6.28   -2.9936146    1.2222255    3.2474885 
         6.3   -2.9929411    1.2160267    3.2524995 
        6.32   -2.9943419    1.2489954    3.0522326 
        6.34    -2.994477    1.3184161    2.6892607 
        6.36   -2.9966462    1.3191903    2.6951351 
        6.38   -2.9957566    1.2531483    3.0896271 
         6.4   -2.9953512    1.1689335    3.5711635 
        6.42   -2.9940173    1.1925101    3.5054663 
        6.44   -2.9937966    1.2264655    3.3504823 
        6.46   -2.9943663    1.2183974    3.3776839 
        6.48   -2.9957778    1.2157758    3.3832468 
         6.5   -2.9956685    1.1664479    3.6106481 
        6.52   -2.9966798     1.154736    3.6320363 
        6.54     -2.99741     1.216439    3.2507409 
        6.56   -2.9968633    1.2931993    2.7591437 
        6.58   -2.9998276    1.3675587    2.2817884 
         6.6   -2.9999928    1.3746176    2.1633237 
        6.62   -2.9974182    1.3623693    2.1963152 
        6.64   -2.9963557    1.3253931    2.3817963 
        6.66   -2.9974371    1.2666838    2.6964675 
        6.68   -2.9999842    1.1963155     3.073042 
         6.7     -3.00112    1.1896047    3.1180835 
        6.72   -3.0024093    1.2769438    2.6636477 
        6.74   -3.0043952    1.3418369    2.3048447 
        6.76   -3.0025298    1.3198748    2.4086938 
        6.78   -3.0018595    1.2690626    2.6878693 
         6.8   -3.0009506    1.2304603    2.9143228 
        6.82   -3.0015424    1.2217255    2.9876234 
        6.84   -3.0020384    1.2182491     3.026515 
        6.86   -3.0018421    1.2164527    3.0565535 
        6.88   -3.0020234    1.2683242    2.8364513 
         6.9   -3.0008574    1.3088184    2.6953916 
        6.92   -3.0003036    1.2535289    3.0097867 
        6.94   -3.0025132    1.2851828    2.8919276 
        6.96   -3.0015191    1.3202493    2.7320385 
        6.98   -3.0022746    1.2993694    2.8372345 
           7   -3.0013488    1.2509312    3.0804366 
        7.02   -2.9999583    1.2336262    3.1382612 
        7.04   -3.0002499    1.3253394    2.6363298 
        7.06    -2.997844    1.3837931    2.3015691 
        7.08   -2.9965514    1.3111225    2.6102427 
         7.1   -2.9958832    1.2745843    2.7411309 
        7.12   -2.9959011    1.3450022    2.3692077 
        7.14   -2.9956915    1.3115054    2.5160387 
        7.16   -2.9952093    1.2966265    2.6525053 
        7.18   -2.9951958    1.2671138    2.9255126 
         7.2   -2.9951983    1.1631546    3.5531344 
        7.22   -2.9932619    1.1804351    3.5608189 
        7.24   -2.9950095    1.2281421    3.3486617 
        7.26   -2.9966301    1.2259542    3.3428533 
        7.28    -2.999969    1.2196314    3.3622868 
         7.3   -2.9995993    1.1855496    3.5175271 
        7.32   -3.0001596    1.1935154    3.4665104 
        7.34   -3.0009526    1.2257472    3.2864237 
        7.36   -3.0001591    1.2394362    3.2005564 
        7.38   -2.9992923    1.1896753    3.4180851 
         7.4   -2.9973172    1.2007647    3.3594862 
        7.42   -2.9960332    1.1790069    3.4244167 
        7.44   -2.9987179    1.2226689    3.1643559 
        7.46   -2.9994414    1.2287688    3.0554581 
        7.48   -3.0006936    1.2776923    2.7398183 
         7.5     -3.00119    1.3366891    2.3838918 
        7.52   -3.0025011    1.3965097    2.0560587 
        7.54    -3.001636    1.4336483    1.8974191 
        7.56   -3.0005071     1.392519    2.1837153 
        7.58   -3.0007035    1.2641315    2.9145118 
         7.6   -2.9984978    1.2309382    3.1642798 
        7.62   -2.9984027    1.2940632    2.8937038 
        7.64   -2.9992377    1.2991466    2.8867744 
        7.66   -3.0003225    1.2700949    3.0824742 
        7.68   -3.0004075    1.2066051    3.4529545 
         7.7   -3.0000943    1.1689926    3.6614795 
        7.72   -2.9995473    1.2092611    3.4409621 
        7.74   -2.9994057    1.2556833    3.1527251 
        7.76    -2.997168    1.2816219    2.9827476 
        7.78   -2.9963932    1.2838303    2.9662499 
         7.8   -2.9958229    1.2617199    3.0931285 
        7.82   -2.9959618     1.245168    3.1956357 
        7.84   -2.9974528    1.2415973    3.2264651 
        7.86   -2.9976421    1.2234544    3.3240399 
        7.88   -2.9970274    1.2540598    3.1926983 
         7.9   -2.9977478    1.2962258    2.9908638 
        7.92   -2.9975359     1.265512    3.1237789 
        7.94   -2.9974716    1.2252827    3.3035122 
        7.96   -2.9984416    1.2289513    3.2817315 
        7.98   -2.9978014    1.2498329    3.1912154 
           8    -2.998652    1.2614986    3.1538907 
        8.02   -2.9975879    1.2073513    3.4366178 
        8.04   -2.9969368    1.1295259    3.8204534 
        8.06   -2.9984704    1.1408298    3.7486565 
        8.08   -2.9972251     1.186417    3.4772306 
         8.1   -2.9982252    1.2285841    3.2173136 
        8.12   -2.9966881    1.2695345    2.9960519 
        8.14   -2.9949248    1.2549245    3.0495076 
        8.16   -2.9952438    1.2355797    3.1149544 
        8.18   -2.9973979    1.2549424    2.9765253 
         8.2   -2.9981308    1.2748489    2.8202817 
        8.22   -2.9977789    1.3047638    2.6231722 
        8.24   -2.9990504    1.3170954     2.518631 
        8.26   -2.9993615     1.328307    2.4466728 
        8.28   -2.9975174    1.3127932    2.5263487 
         8.3   -2.9983191    1.2956936    2.6111983 
        8.32   -2.9996565    1.3438416    2.3958073 
        8.34   -2.9986494    1.3376187    2.4523828 
        8.36   -2.9998428    1.2445925    2.9235699 
        8.38   -3.0008847    1.1732404    3.2844263 
         8.4   -3.0033249    1.1628254    3.3353927 
        8.42   -3.0013256    1.2224691    3.0574244 
        8.44   -3.0005729    1.2618436    2.8633718 
        8.46     -2.99867     1.267603    2.8277654 
        8.48   -2.9976764    1.2973532    2.6871175 
         8.5   -2.9965423    1.2894232    2.7323988 
        8.52     -2.99879    1.2377152    2.9866195 
        8.54   -2.9964008    1.2210143    3.0954513 
        8.56   -2.9987542    1.1980689    3.2284209 
        8.58   -2.9987243    1.1994846    3.2200094 
         8.6   -2.9990424    1.3141852    2.6389957 
        8.62   -2.9976085     1.384308    2.2744949 
        8.64   -2.9977493    1.3629041    2.3831211 
        8.66    -2.999556    1.3403677    2.5132778 
        8.68   -2.9989546    1.3477312    2.5039728 
         8.7   -2.9972973    1.3364279    2.5978117 
        8.72   -2.9973284    1.2996064    2.8134427 
        8.74   -2.9970199    1.3116988     2.790924 
        8.76   -2.9973002    1.3240315    2.7481628 
        8.78   -2.9960839    1.3014386     2.856222 
         8.8   -2.9957695    1.2851325    2.9191065 
        8.82   -2.9970135    1.3289906    2.6900299 
        8.84   -2.9973099    1.3589508    2.5313736 
        8.86   -2.9979932    1.3246942    2.6806031 
        8.88   -2.9956965    1.2615181    2.9472196 
         8.9   -2.9988698    1.3129024    2.6550258 
        8.92   -3.0002257    1.3572955    2.4100043 
        8.94    -3.000181    1.3379825    2.5009136 
        8.96   -3.0013518    1.2923576    2.7315779 
        8.98   -3.0007299    1.2467678    2.9531373 
           9   -3.0004062    1.2622468    2.8818342 
        9.02   -3.0013602    1.2829163    2.7835084 
        9.04     -3.00076    1.2764692    2.8063086 
        9.06   -2.9992843    1.2862445    2.7466918 
        9.08   -2.9982445    1.2558917    2.8799812 
         9.1   -2.9969754    1.2552529    2.8644326 
        9.12   -2.9974192    1.3245658    2.4832952 
        9.14   -2.9974088    1.3548132    2.2819625 
        9.16    -2.997051    1.3339108    2.3714553 
        9.18   -2.9977528    1.2395705    2.8530016 
         9.2   -2.9971435     1.159522    3.2718432 
        9.22   -3.0016503     1.183076    3.1575554 
        9.24   -3.0020228    1.2398231    2.8702176 
        9.26   -3.0021811    1.2357008    2.8752607 
        9.28   -3.0024144     1.233354    2.8992035 
         9.3   -3.0034713     1.204372    3.0498725 
        9.32   -3.0025653    1.2269936     2.940072 
        9.34   -3.0021457    1.2985523    2.5685325 
        9.36   -2.9997408      1.33247    2.3738904 
        9.38   -3.0006523     1.322065    2.4289055 
         9.4    -3.001013    1.1933624     3.074886 
        9.42   -2.9999097    1.1505622    3.3065099 
        9.44   -2.9995041    1.2527141    2.8263174 
        9.46   -2.9973814    1.2913495    2.6330002 
        9.48   -2.9971197    1.3323946    2.4513738 
         9.5    -2.998761     1.287632     2.690317 
        9.52   -2.9977853    1.2117918    3.0603147 
        9.54   -2.9976779    1.2436411    2.8875728 
        9.56   -2.9977277    1.2719572    2.7350657 
        9.58   -2.9976991    1.2301049    2.9644709 
         9.6   -2.9976031    1.1747989    3.2829867 
        9.62   -2.9992325    1.1945447    3.2174862 
        9.64   -2.9978717    1.2457535    2.9630683 
        9.66   -3.0004049    1.2523498     2.892314 
        9.68   -2.9999594    1.2667678    2.7919704 
         9.7   -2.9997591    1.3241326    2.4973873 
        9.72   -2.9969087    1.3471865    2.3832786 
        9.74   -2.9955079    1.3051059    2.5968407 
        9.76   -2.9980186    1.2825893     2.726701 
        9.78   -2.9989744    1.2921532    2.6990107 
         9.8   -2.9979755    1.2984294    2.6938208 
        9.82   -3.0008371    1.2784973    2.8211628 
        9.84   -3.0010208    1.2331553    3.0671405 
        9.86   -2.9993986    1.2507328     3.002019 
        9.88   -2.9979467    1.3328397    2.6509689 
         9.9   -2.9985583    1.2810452    2.9641099 
        9.92   -2.9982573    1.2257943    3.3110313 
        9.94    -2.999387    1.2294895    3.3528861 
        9.96   -3.0003222    1.2091422     3.486879 
        9.98   -3.0008852    1.1538356    3.7551325 
          10   -3.0020749    1.1606397    3.6826933 
       10.02   -3.0007479    1.2172498    3.3447699 
       10.04   -3.0007794    1.2254178    3.2329783 
       10.06   -3.0001522    1.2393219    3.1137756 
       10.08   -2.9996107    1.2505109    3.0107599 
        10.1   -2.9998671    1.2646784    2.8901722 
       10.12   -2.9997962    1.2848026    2.7559139 
       10.14   -3.0010229    1.2751716    2.7779382 
       10.16   -3.0001245    1.2743233    2.7859037 
       10.18   -3.0017699    1.2672977    2.8535837 
        10.2   -3.0006262    1.1945604    3.2505588 
       10.22   -2.9996309    1.1572851    3.4521778 
       10.24   -3.0006798    1.2269713    3.0947589 
       10.26    -3.000918    1.2842603    2.7700475 
       10.28   -3.0019612    1.3001099    2.6707934 
        10.3   -3.0017031    1.2872846    2.7720092 
       10.32   -3.0023704      1.25196    3.0252092 
       10.34   -3.0026034    1.2159272    3.2746454 
       10.36   -3.0028548    1.2250641    3.2614786 
       10.38   -3.0034777    1.2671353     3.051598 
        10.4   -2.9996667    1.2550248    3.0865068 
       10.42   -2.9986353    1.2146245    3.2300007 
       10.44   -3.0002721    1.2359539    3.0521747 
       10.46   -2.9986107    1.2746638    2.7856148 
       10.48   -3.0012415    1.2826142    2.6726857 
        10.5   -3.0023357    1.2618556    2.7246505 
       10.52   -3.0011816    1.2636548    2.7056925 
       10.54   -3.0002261    1.2885321    2.6014671 
       10.56   -2.9990569    1.2799247    2.6663742 
       10.58   -2.9989052    1.2823764    2.7072466 
        10.6   -2.9989772    1.2387532    2.9767621 
       10.62   -2.9996742    1.1803897    3.2874433 
       10.64   -3.0005732    1.2004626    3.1692122 
       10.66   -3.0006375    1.2858735    2.7233507 
       10.68    -3.001438    1.2721723    2.7758785 
        10.7   -3.0018038    1.1718984    3.2675532 
       10.72   -3.0003971     1.194159    3.1915648 
       10.74   -3.0009393    1.2525027     2.914052 
       10.76   -3.0016748    1.2919428    2.7025593 
       10.78   -2.9998348     1.341889    2.4293638 
        10.8   -2.9992898    1.3933385    2.1553753 
       10.82   -3.0001228    1.3593242    2.3141124 
       10.84   -2.9979879     1.301807     2.627298 
       10.86   -2.9984467    1.2650558    2.8642682 
       10.88   -2.9964991    1.2334781     3.075996 
        10.9   -2.9978598    1.2754225    2.9308343 
       10.92   -2.9966475    1.2663743    3.0218258 
       10.94   -2.9944857      1.21972    3.2764997 
       10.96   -2.9950429    1.2185628    3.2791671 
       10.98   -2.9969426    1.2400681     3.155847 
          11   -2.9969098    1.2118875    3.2824509 
       11.02   -2.9956999     1.161711    3.5222098 
       11.04    -2.995906    1.2249217    3.2288718 
       11.06   -2.9938878    1.2724363    3.0181983 
       11.08   -2.9942289       1.2734    3.0476799 
        11.1   -2.9950961    1.2798037    3.0452589 
       11.12   -2.9945866    1.2342944    3.2298421 
       11.14   -2.9939906     1.266651    3.0040547 
       11.16   -2.9950094    1.2903395      2.79323 
       11.18     -2.99774    1.2547127    2.8894352 
        11.2   -2.9975621    1.2746526    2.7766855 
       11.22   -2.9971291     1.292665    2.7038173 
       11.24   -2.9951983    1.3102902    2.6837188 
       11.26   -2.9959543    1.2829854    2.9222058 
       11.28   -2.9956088    1.1727133    3.5515141 
        11.3   -2.9969665    1.1465425    3.7274024 
       11.32   -2.9971672    1.1852672    3.5256833 
       11.34   -2.9985956    1.2151146    3.3422989 
       11.36   -2.9955125    1.2153195     3.334224 
       11.38   -2.9972529    1.1621388    3.5918062 
        11.4   -2.9969577    1.1349198    3.7261217 
       11.42   -2.9975799    1.1630353    3.5856341 
       11.44   -2.9988465    1.1661905     3.566607 
       11.46   -2.9991461    1.1505789     3.660783 
       11.48   -2.9993652    1.1266523    3.7750417 
        11.5   -2.9991221     1.206885    3.3559207 
       11.52   -2.9983621    1.2840277    2.9142623 
       11.54   -2.9980372    1.3080187    2.7381181 
       11.56   -2.9966834    1.3055979    2.7527072 
       11.58   -2.9962184    1.2352735    3.1357152 
        11.6   -2.9967031     1.181906    3.4392756 
       11.62   -2.9969846     1.190279    3.4207866 
       11.64    -2.998882    1.2287711     3.240486 
       11.66    -2.997741    1.2367347    3.2106908 
       11.68    -3.000037    1.1917838      3.39763 
        11.7   -3.0011932    1.2454589    3.0737179 
       11.72   -3.0015281    1.3337271    2.5750977 
       11.74   -2.9996645     1.329145    2.5777098 
       11.76   -2.9991219    1.2561066    2.9698702 
       11.78   -3.0013877    1.1753926    3.3990946 
        11.8    -3.001286    1.1680354    3.4322946 
       11.82   -2.9998625    1.2249479    3.0870812 
       11.84   -2.9982543    1.2956012    2.6492184 
       11.86   -2.9984889     1.288967     2.595399 
       11.88    -2.998598    1.2417138    2.7602823 
        11.9   -3.0005558    1.2864968    2.5108936 
       11.92   -3.0000852    1.3255746    2.3283096 
       11.94    -3.000898     1.288507    2.5494344 
       11.96   -2.9987841    1.2629329     2.740405 
       11.98   -2.9969469    1.2610837    2.8170821 
          12   -2.9992227    1.2183539    3.0441231 
       12.02    -2.997897    1.2665331    2.8010977 
       12.04   -2.9978415      1.32988    2.4483714 
       12.06   -2.9989925    1.3396486    2.3539595 
       12.08   -2.9990512    1.3337822     2.348542 
        12.1   -3.0000182    1.3265343     2.356203 
       12.12    -3.001103    1.2849373    2.5325723 
       12.14   -3.0018149    1.2677996     2.609781 
       12.16   -3.0019744    1.2697435    2.6026524 
       12.18   -3.0035835    1.3324171    2.3328962 
        12.2    -3.002961    1.3289296    2.4012534 
       12.22   -3.0037174    1.2989429    2.6152454 
       12.24   -3.0026913    1.2761308    2.7915372 
       12.26   -3.0029132    1.2861439    2.7828782 
       12.28   -3.0024219    1.3200024    2.6457871 
        12.3   -3.0017962    1.2740438     2.887749 
       12.32   -2.9994939    1.2407512    3.0925468 
       12.34   -2.9984581    1.2591831    3.0622548 
       12.36   -2.9959326    1.2364241    3.2192761 
       12.38   -2.9958716    1.2051247    3.3859807 
        12.4   -2.9963889    1.2156331    3.3271172 
       12.42   -2.9967226    1.1880159    3.4323328 
       12.44   -2.9965542     1.172838    3.4677998 
       12.46   -2.9964981    1.2127035    3.2171743 
       12.48   -2.9965424    1.3196411    2.6578867 
        12.5    -2.996263    1.3452597    2.5332438 
       12.52   -2.9958688    1.2744019    2.9223719 
       12.54   -2.9955318    1.2247549    3.2269442 
       12.56   -2.9965405    1.2028559    3.3629446 
       12.58   -2.9967473    1.2125039    3.3201401 
        12.6   -2.9962486    1.2111845    3.3141574 
       12.62   -2.9980532    1.2671167    3.0437341 
       12.64   -2.9965252    1.3050357    2.8725915 
       12.66   -2.9963516    1.2720595     3.061858 
       12.68   -2.9975768     1.215135     3.373879 
        12.7   -2.9979999    1.2198783    3.3716869 
       12.72   -2.9980248    1.2558518    3.1898198 
       12.74   -2.9976825    1.2972406     2.975261 
       12.76    -2.995849    1.2982513    2.9710634 
       12.78   -2.9956626    1.2375719    3.2763667 
        12.8   -2.9971718    1.1820099     3.548872 
       12.82   -2.9976094    1.1823022    3.5367041 
       12.84   -2.9981305    1.2065533    3.3929952 
       12.86   -2.9981689    1.2309826    3.2517021 
       12.88    -2.998772    1.2220179    3.2655036 
        12.9   -2.9998734    1.2403249    3.1330147 
       12.92   -3.0010627    1.3284868    2.6704241 
       12.94   -3.0026416    1.3569242    2.5293933 
       12.96   -3.0023491    1.3072312    2.8277969 
       12.98   -3.0005495    1.2305135    3.2789969 
          13    -2.999298    1.2121582     3.433589 
       13.02   -2.9998312     1.228454    3.3956132 
       13.04   -2.9995734     1.240612    3.3705243 
       13.06   -3.0008542    1.2526485     3.338103 
       13.08   -2.9974642    1.2776757     3.239706 
        13.1   -2.9972069     1.307551    3.0992468 
       13.12   -2.9975339    1.3247287    3.0205319 
       13.14   -2.9978529    1.2967994    3.1707469 
       13.16   -2.9979097    1.2682897    3.3333484 
       13.18   -2.9966142    1.2590073    3.3776161 
        13.2   -2.9977212    1.3200612    3.0640714 
       13.22   -2.9986219     1.289569    3.1879858 
       13.24   -2.9964646     1.186649    3.6815507 
       13.26   -2.9981836    1.1906555    3.6484501 
       13.28   -2.9956205    1.2775824    3.1825398 
        13.3   -2.9966751    1.3072777    2.9676959 
       13.32   -2.9975252    1.3267476    2.8363679 
       13.34   -2.9976975    1.3202778    2.8424042 
       13.36   -2.9981857    1.3120853    2.8691672 
       13.38   -2.9966533    1.2584314    3.1152558 
        13.4   -2.9985185    1.2323687    3.2140175 
       13.42   -2.9970219    1.2138494    3.2702453 
       13.44   -2.9975566    1.1791819    3.3907494 
       13.46    -2.997211    1.2292895    3.1077743 
       13.48   -2.9965327     1.308846    2.6882029 
        13.5   -2.9981644    1.3115009    2.6493821 
       13.52   -2.9974732    1.2922806    2.7435246 
       13.54   -2.9986323    1.2999284    2.7107101 
       13.56   -2.9961077    1.3312584    2.5741214 
       13.58   -2.9954414    1.3246148    2.6283119 
        13.6   -2.9964607    1.2614567    2.9653152 
       13.62   -2.9993668    1.1974676    3.2941149 
       13.64   -2.9997078    1.2052685    3.2719399 
       13.66   -2.9964406    1.2139964    3.2355777 
       13.68   -2.9979342    1.2133716     3.228539 
        13.7   -3.0006351    1.2323082    3.1378302 
       13.72   -2.9986431    1.2056455    3.2834686 
       13.74   -2.9993211    1.1697828     3.464177 
       13.76   -2.9980964    1.2101092    3.2538209 
       13.78   -2.9991748    1.2670738    2.9300231 
        13.8   -2.9973068    1.2944453    2.7700407 
       13.82   -2.9979899    1.2973655    2.7712064 
       13.84   -2.9986191    1.2590195    2.9976138 
       13.86   -2.9978171    1.2212996    3.2245011 
       13.88   -2.9979643     1.210442    3.2997103 
        13.9   -2.9978262    1.2362771    3.1589721 
       13.92   -2.9989585    1.3144055    2.7366705 
       13.94   -2.9977019    1.3620428    2.4590006 
       13.96   -2.9997337    1.3886079    2.3161834 
       13.98   -3.0010179     1.345455    2.5390822 
          14   -3.0006249    1.2787777    2.8644011 
       14.02   -2.9999813     1.294158    2.7688216 
       14.04    -2.999794    1.3030107    2.6921108 
       14.06   -2.9975348    1.3072825    2.6694341 
       14.08   -2.9960589    1.2763241    2.8171023 
        14.1   -2.9971019    1.3026769    2.6963865 
       14.12   -2.9977489    1.3003488    2.7203841 
       14.14    -2.999967    1.2454624    3.0133025 
       14.16   -2.9997724    1.1743115    3.3882486 
       14.18   -2.9989835    1.1611797    3.4651652 
        14.2   -2.9977846    1.2210119    3.1922219 
       14.22   -2.9989444    1.2565806    3.0499818 
       14.24   -2.9992201    1.2358669     3.205499 
       14.26   -2.9995552    1.1703842    3.5798295 
       14.28   -2.9979991    1.1450428    3.7341467 
        14.3   -3.0006796    1.2459946     3.245161 
       14.32   -2.9993845    1.3185092     2.876866 
       14.34   -2.9985069    1.3281772    2.8291469 
       14.36   -2.9971451    1.3261455    2.8919988 
       14.38    -2.996779    1.2618754    3.2873767 
        14.4   -2.9965121    1.2214704    3.5599503 
       14.42   -2.9982462    1.2154988    3.6112396 
       14.44   -2.9963133     1.221277    3.5569561 
       14.46   -2.9950565    1.2850386     3.192025 
       14.48   -2.9945037    1.2806996    3.1168323 
        14.5   -2.9971237    1.2323995     3.232721 
       14.52   -2.9984685     1.253054    3.0340629 
       14.54   -2.9989148    1.3027489    2.7170652 
       14.56   -2.9995085    1.3263886    2.5494992 
       14.58   -3.0006217    1.3606083    2.3590829 
        14.6   -2.9999546    1.4353355    2.0021791 
       14.62   -2.9971322    1.4558787    1.9366959 
       14.64   -2.9960273    1.3698953    2.3996274 
       14.66   -2.9960816    1.2795094    2.8699463 
       14.68   -2.9976673    1.2532664    3.0165415 
        14.7   -2.9961054     1.220744    3.1709445 
       14.72   -2.9992081    1.2452563    3.0148706 
       14.74    -2.999671     1.264278    2.8569761 
       14.76    -3.000307    1.2924296    2.6541992 
       14.78   -3.0026101    1.3453135    2.3596324 
        14.8   -3.0028975    1.3443692    2.3865848 
       14.82   -3.0008096    1.2582379    2.8669574 
       14.84   -2.9990261    1.2272447    3.0538798 
       14.86   -3.0000422    1.3056861    2.6540792 
       14.88   -3.0006091    1.3130262    2.5739265 
        14.9   -3.0017822    1.2902294    2.6662706 
       14.92   -3.0022635    1.2758306    2.7231817 
       14.94   -3.0024257    1.2987249    2.5841175 
       14.96   -3.0001917    1.3442214    2.3105289 
       14.98   -2.9990017    1.3765254    2.1053622 
          15   -2.9994808    1.2969019    2.4606848 
       15.02   -3.0014335    1.2607125    2.6499895 
       15.04   -3.0012357    1.2378536    2.7784564 
       15.06   -3.0024921    1.2062667    2.9409472 
       15.08   -3.0004728    1.2174321    2.9072151 
        15.1   -2.9994525    1.2178813    2.9136766 
       15.12   -3.0008463    1.2077992    2.9395723 
       15.14    -3.001548     1.292015    2.5100764 
       15.16   -3.0007715    1.3293254    2.3031983 
       15.18   -3.0003801    1.2950125    2.4547771 
        15.2   -3.0018694    1.3169935     2.369164 
       15.22   -3.0007393    1.3602315    2.2144149 
       15.24   -3.0005873    1.3571256    2.3077446 
       15.26   -3.0016586    1.3133542    2.6260566 
       15.28   -3.0002972    1.2259289    3.1634009 
        15.3   -2.9988523    1.1607127    3.5680669 
       15.32   -2.9971669    1.1636387    3.6036711 
       15.34   -2.9957117    1.2016557    3.4406879 
       15.36   -2.9961226    1.1979797    3.4538485 
       15.38   -2.9957966    1.2195358    3.3487533 
        15.4   -2.9951373    1.2384664    3.2592642 
       15.42    -2.995229    1.2314994    3.3088744 
       15.44   -2.9960254    1.1572716    3.6788471 
       15.46   -2.9964346    1.1241925    3.8482168 
       15.48   -2.9965337     1.165413    3.6343846 
        15.5   -2.9963752    1.2494679    3.2038511 
       15.52   -2.9983666    1.2844153    3.0067928 
       15.54   -2.9974945    1.3021744    2.9101259 
       15.56   -2.9965417    1.3076094    2.8717501 
       15.58   -2.9957907    1.3216005    2.8017973 
        15.6   -2.9959531    1.3068943    2.8801696 
       15.62   -2.9955071    1.2542569    3.1240693 
       15.64   -2.9970056    1.2979377    2.8947547 
       15.66   -2.9980455    1.3090871      2.81125 
       15.68   -2.9984135    1.2648782    2.9799576 
        15.7   -3.0001709    1.3061916    2.7246085 
       15.72   -3.0005551    1.3667825    2.3867845 
       15.74   -3.0004487    1.3354569     2.513669 
       15.76   -3.0017995    1.3057773    2.6387354 
       15.78   -3.0000681    1.3568109      2.36831 
        15.8   -3.0018237    1.3987786    2.1379848 
       15.82   -3.0012535    1.3661957    2.3011392 
       15.84   -3.0010617    1.2987394    2.6586973 
       15.86   -2.9996541    1.2658271    2.8525865 
       15.88   -3.0006353    1.2529577    2.9227739 
        15.9   -3.0001777    1.2445738     2.944569 
       15.92   -3.0000791    1.2821778      2.74885 
       15.94   -2.9990721    1.3160606    2.6064178 
       15.96   -3.0002729    1.3011876    2.7383989 
       15.98   -2.9990901     1.238177    3.1185686 
          16   -2.9981118    1.1889678    3.3919488 
       16.02   -2.9997028    1.2318777    3.1506368 
       16.04   -3.0009654    1.3273101    2.6117119 
       16.06   -2.9997592    1.3496083    2.4340722 
       16.08   -2.9998632    1.3022736    2.6243553 
        16.1   -2.9997883    1.2408195    2.9046897 
       16.12   -3.0008212    1.2328449    2.9462937 
       16.14     -2.99979    1.2924992    2.6961857 
       16.16   -2.9980184    1.2841413    2.7935345 
       16.18   -2.9965745    1.1935884     3.277014 
        16.2   -2.9952604     1.137713    3.5539694 
       16.22   -2.9959993     1.235607    3.0686327 
       16.24   -2.9958208    1.3113681    2.7068908 
       16.26    -2.996611    1.2318087    3.1084235 
       16.28     -2.99769    1.2285605    3.1289871 
        16.3    -2.997416    1.3018911     2.724538 
       16.32   -2.9988366     1.333407    2.5113059 
       16.34   -2.9985928    1.3090635    2.6258619 
       16.36   -2.9963572    1.2473753    2.9572017 
       16.38   -2.9956765    1.2480193    2.9946698 
        16.4   -2.9964915     1.253924    2.9968646 
       16.42   -2.9980882    1.2260818    3.1590992 
       16.44   -2.9988909    1.1741027    3.4171113 
       16.46   -2.9988384    1.2118117    3.2266839 
       16.48   -2.9992389    1.2671211    2.9393873 
        16.5   -2.9977854    1.2795538    2.8823007 
       16.52   -2.9987766     1.260696     2.985404 
       16.54   -2.9981161    1.2589896    2.9971844 
       16.56   -2.9958622    1.2866985    2.8681008 
       16.58   -2.9952982    1.2598242    3.0109124 
        16.6   -2.9947978    1.2117273    3.2611836 
       16.62   -2.9949406    1.1684446    3.4573086 
       16.64   -2.9970965    1.2019625    3.2671431 
       16.66   -2.9974112    1.2776818    2.8756911 
       16.68   -2.9981296    1.3384907    2.5696547 
        16.7   -2.9974681    1.3889821    2.3648607 
       16.72   -2.9999982    1.3439377    2.6421061 
       16.74   -2.9974285    1.2769857    3.0163361 
       16.76   -2.9971097    1.2771539    3.0153967 
       16.78   -2.9968516    1.3090713    2.8122559 
        16.8   -2.9977023    1.3433613    2.5791172 
       16.82   -2.9986421    1.3377882    2.5412447 
       16.84   -2.9981643     1.345045    2.4624137 
       16.86   -2.9988551    1.3288141    2.5125172 
       16.88    -2.998512    1.2655285    2.8169427 
        16.9   -3.0015075    1.2427541    2.9554815 
       16.92    -3.002647    1.2680495    2.8873046 
       16.94   -3.0039802    1.2286575     3.140076 
       16.96   -3.0029575    1.1359966    3.6464808 
       16.98   -3.0021166    1.1767866    3.4925939 
          17   -3.0011697    1.2275102    3.2278335 
       17.02   -3.0016166    1.2730238    2.9717615 
       17.04   -3.0008349    1.3465736    2.6305276 
       17.06   -2.9998536    1.3381711    2.7346756 
       17.08   -3.0005849    1.2782308    3.1221481 
        17.1   -3.0006034    1.2198282    3.4887106 
       17.12   -3.0004283    1.1783039    3.6979838 
       17.14   -2.9996721    1.1965688    3.5378292 
       17.16   -2.9969626    1.2553974    3.1545709 
       17.18   -2.9972895    1.3016908    2.8689885 
        17.2   -2.9976154     1.279858    2.9799191 
       17.22   -2.9976908    1.2380976    3.2393723 
       17.24   -2.9960654    1.2290153    3.3518464 
       17.26   -2.9985459    1.2076835     3.494364 
       17.28    -2.999837    1.1866149    3.6160117 
        17.3   -3.0001242    1.1926083    3.5746697 
       17.32   -2.9982805    1.2776247    3.1477927 
       17.34   -2.9991557    1.3344751    2.8813468 
       17.36   -3.0002874    1.2728957    3.2194759 
       17.38   -2.9998022    1.2190409    3.5383353 
        17.4   -3.0006871     1.186191    3.7206864 
       17.42   -3.0007187    1.1878587    3.6996308 
       17.44   -3.0022747    1.2087429    3.5422481 
       17.46   -3.0025674    1.2376197    3.3344653 
       17.48   -3.0020208    1.2415334    3.2567221 
        17.5   -2.9996404    1.2336855    3.2472107 
       17.52   -2.9995652    1.2458902    3.1267627 
       17.54   -3.0020359    1.2332938    3.0970222 
       17.56   -3.0029957    1.2282516    3.0300067 
       17.58   -3.0007426    1.3011636     2.625344 
        17.6   -2.9989441    1.3532096    2.3684716 
       17.62   -2.9995254    1.3252674     2.541238 
       17.64   -2.9992379    1.2620554    2.9045195 
       17.66   -2.9960444    1.2095781    3.1971415 
       17.68   -2.9959742    1.2155522    3.1850956 
        17.7   -2.9974539    1.2214978    3.1633468 
       17.72   -2.9969793    1.1991626    3.2674175 
       17.74   -2.9986964    1.2119653    3.1878868 
       17.76   -2.9977325    1.2692846    2.9030385 
       17.78    -2.996987    1.2911323    2.8110143 
        17.8   -2.9977132    1.2503745    3.0465885 
       17.82   -2.9986653     1.222388    3.2353039 
       17.84   -2.9971093    1.2530757    3.1588046 
       17.86   -2.9962852    1.2383263    3.3080974 
       17.88   -2.9945439    1.1719706     3.709198 
        17.9   -2.9937688    1.1139371    4.0479862 
       17.92   -2.9940019    1.1046217    4.1109832 
       17.94   -2.9951725    1.1480163     3.884269 
       17.96    -2.994884    1.1537095    3.8158407 
       17.98   -2.9937221    1.1480549    3.7939702 
          18   -2.9922875    1.2049912    3.4840243 
       18.02   -2.9936392    1.2588129    3.1852293 
       18.04   -2.9955931    1.3135642    2.9126607 
       18.06   -2.9952029    1.2586949    3.2084942 
       18.08    -2.995231    1.1434165    3.8155571 
        18.1   -2.9955826    1.1558523    3.8170643 
       18.12   -2.9948262    1.1696774    3.7604101 
       18.14   -2.9960005    1.1853772    3.6410029 
       18.16   -2.9974305    1.2101635    3.4470794 
       18.18   -2.9964664     1.217757    3.3475341 
        18.2   -2.9964414    1.1744637    3.5022839 
       18.22   -2.9964429     1.192413    3.3703419 
       18.24    -2.997045    1.2622088    2.9780944 
       18.26   -2.9989823    1.3071635    2.7052203 
       18.28    -2.998675    1.3250758    2.5743575 
        18.3    -2.998151    1.3505297    2.4239434 
       18.32   -2.9978364    1.3052003    2.6355828 
       18.34   -2.9976433    1.2419994    2.9673736 
       18.36   -2.9976986    1.2260767    3.0918045 
       18.38   -2.9977343    1.2234015    3.1361079 
        18.4   -2.9991629     1.288284    2.8456662 
       18.42   -2.9983944    1.3281122    2.6842881 
       18.44   -2.9981598     1.246454    3.1088875 
       18.46   -2.9989375    1.2320748    3.2075512 
       18.48   -3.0001131    1.3010434    2.8738155 
        18.5   -2.9997953    1.3164935    2.7668578 
       18.52   -2.9981464    1.3042542    2.7941682 
       18.54   -2.9963407    1.3201317    2.7212833 
       18.56   -2.9965855    1.2617643    3.0233356 
       18.58   -2.9976911    1.1768783    3.4420391 
        18.6   -2.9991823    1.2478813    3.0887992 
       18.62   -2.9990101    1.3304848    2.6620375 
       18.64   -2.9991397    1.3012426    2.7799695 
       18.66   -2.9988402    1.2569594    2.9799994 
       18.68   -2.9972934    1.2557641    2.9481185 
        18.7   -2.9976399    1.2949373    2.6828521 
       18.72   -2.9973779    1.3649584    2.2727457 
       18.74    -2.997004    1.3631132    2.2275659 
       18.76   -2.9965208    1.3512115     2.280653 
       18.78   -2.9965342    1.3222303    2.4529646 
        18.8    -2.994257    1.2675297     2.779333 
       18.82   -2.9952262    1.2432642    2.9759006 
       18.84   -2.9973005    1.2148801     3.178044 
       18.86   -2.9979112     1.188846     3.326073 
       18.88   -2.9984054    1.2190965    3.1491707 
        18.9   -2.9986308    1.3017468    2.6907641 
       18.92   -2.9981265    1.3399246    2.4553148 
       18.94   -2.9971426    1.2952996    2.6507221 
       18.96   -2.9975273    1.2243169    2.9982496 
       18.98   -2.9971891    1.1861214     3.201594 
          19   -2.9971201    1.2501405    2.9216533 
       19.02   -2.9998469    1.3403089    2.5254093 
       19.04   -3.0008804    1.3221272    2.6806001 
       19.06   -3.0012389    1.2211296    3.2456603 
       19.08   -2.9996013    1.1968995    3.4125493 
        19.1   -2.9991436     1.240309     3.193919 
       19.12   -2.9995729    1.2617632    3.0499078 
       19.14    -2.999634    1.2312901    3.1432135 
       19.16   -3.0008846    1.2305356    3.0898301 
       19.18   -3.0005631    1.2873553    2.7727007 
        19.2   -2.9992806    1.3233681    2.5799609 
       19.22   -2.9996387    1.3065922    2.6640057 
       19.24   -2.9994258    1.2734841    2.8328039 
       19.26   -2.9996221    1.2991184    2.7083616 
       19.28   -2.9990271    1.3252128    2.5664613 
        19.3    -2.997936    1.3023934    2.6641946 
       19.32   -2.9997271    1.2785678    2.7857118 
       19.34    -3.000058    1.2839111    2.7805047 
       19.36   -2.9992021    1.2832365    2.7967699 
       19.38   -2.9980498    1.3109198    2.6705763 
        19.4   -2.9979229    1.3604662    2.4316799 
       19.42   -2.9983037     1.378269    2.3731453 
       19.44   -2.9970862    1.2800524    2.9043058 
       19.46   -2.9972604    1.2205804    3.2599284 
       19.48   -2.9974782     1.268565    3.0911448 
        19.5   -2.9970286    1.2499653    3.2153867 
       19.52   -2.9980938    1.2034948    3.4279178 
       19.54   -2.9967759    1.2505482    3.1330159 
       19.56   -2.9987785    1.3626096    2.5024137 
       19.58   -2.9996506    1.3808407    2.3605268 
        19.6   -3.0000587    1.3244286    2.6277984 
       19.62   -2.9973345     1.306078    2.7354652 
       19.64   -2.9996476    1.3149061      2.70112 
       19.66   -2.9992228    1.2702371    2.9223238 
       19.68   -3.0026599    1.2124013    3.1906219 
        19.7   -3.0004578    1.2362344    3.0537727 
       19.72   -3.0008728    1.3221871    2.6115539 
       19.74   -3.0013059    1.3295244    2.5688804 
       19.76   -3.0023805    1.2511115    2.9493155 
       19.78   -3.0027963     1.280406     2.823604 
        19.8   -3.0021826    1.3218819    2.6153064 
       19.82   -3.0018482    1.3051108    2.6600155 
       19.84   -3.0015395    1.2883087    2.7014707 
       19.86    -3.001559    1.3045112    2.6063161 
       19.88   -3.0023633    1.2619294    2.7969699 
        19.9   -3.0021078    1.2965941    2.6741916 
       19.92   -3.0016205    1.2957528    2.7470317 
       19.94   -3.0008669    1.2532352    3.0393851 
       19.96   -2.9994718    1.1883908    3.4145004 
       19.98   -3.0005012     1.188024    3.4392631 
          20   -2.9994513     1.236311    3.2090115 
       20.02   -2.9993071    1.2458387    3.1391571 
       20.04   -2.9976625    1.2925507    2.8866703 
       20.06   -2.9994401    1.3424165    2.5965573 
       20.08   -3.0003295    1.3444677    2.5103144 
        20.1   -3.0001871    1.3979932    2.1930772 
       20.12   -2.9994684    1.4126286    2.1071623 
       20.14   -2.9985362    1.3271538    2.5429331 
       20.16   -2.9994603    1.2818521    2.7945391 
       20.18   -2.9986286    1.2842828    2.7956864 
        20.2   -3.0001523    1.2543663     2.917724 
       20.22   -3.0007424    1.2446526    2.9303569 
       20.24   -3.0017191    1.2931878    2.6635395 
       20.26   -3.0003957    1.3434459    2.4212957 
       20.28   -3.0012666    1.2965466    2.6842732 
        20.3   -3.0000789    1.2109914    3.1332908 
       20.32   -2.9978606    1.2380186    3.0121914 
       20.34   -2.9973624    1.2826864    2.7822476 
       20.36   -2.9972116    1.2965811    2.7111951 
       20.38   -2.9980289    1.2805758    2.8111231 
        20.4   -2.9991768    1.2196762    3.1423101 
       20.42   -2.9984923    1.2187728    3.2121878 
       20.44   -2.9979796     1.220797     3.259533 
       20.46   -2.9991375    1.2153435    3.3107142 
       20.48   -2.9998646    1.2371356    3.1860973 
        20.5   -3.0009153    1.3121179    2.7855123 
       20.52    -2.999727    1.3301561    2.6650426 
       20.54   -3.0012904    1.2870965    2.8346338 
       20.56    -3.002168     1.293909     2.759982 
       20.58   -3.0032084    1.2985865    2.6697797 
        20.6   -3.0032551    1.2807396    2.6641691 
       20.62   -3.0035309    1.3319344    2.3586156 
       20.64    -3.002721    1.3433091    2.2976997 
       20.66    -3.002862    1.2776978    2.6479157 
       20.68   -2.9998458    1.2464296    2.8601994 
        20.7   -2.9988725    1.2718539    2.8010664 
       20.72   -2.9996945    1.2823873    2.8066124 
       20.74   -3.0003371    1.2391423    3.0597002 
       20.76   -3.0010738    1.1779371    3.3742444 
       20.78   -3.0007463    1.1393458    3.5558136 
        20.8   -3.0004426    1.1284638    3.5681099 
       20.82   -2.9997417    1.2294228    3.0371149 
       20.84   -2.9998538    1.2834661    2.7264065 
       20.86   -2.9994992    1.2754447    2.7306758 
       20.88   -2.9987913    1.2707802    2.7416653 
        20.9   -2.9977825    1.2648417     2.773618 
       20.92    -2.998241    1.2903629    2.6677032 
       20.94   -2.9975558      1.27997    2.7299344 
       20.96   -2.9982419    1.2752986    2.7448101 
       20.98   -2.9987868    1.2920666    2.6221576 
          21   -2.9991515    1.3593598    2.2460897 
       21.02   -2.9977073     1.410551    1.9569625 
       21.04   -2.9970752    1.4054256    1.9796739 
       21.06   -2.9982878    1.3425863    2.3292128 
       21.08   -2.9978703    1.3034977    2.6154007 
        21.1   -2.9994105    1.2348368     3.030583 
       21.12   -3.0001747    1.2235595     3.141549 
       21.14   -2.9993839    1.2721052    2.9567784 
       21.16   -2.9994753    1.2525972    3.0796793 
       21.18   -3.0008577    1.2320994    3.1664638 
        21.2   -2.9991394    1.3240598    2.6988012 
       21.22   -3.0002438    1.3659859    2.4590413 
       21.24    -3.000573    1.3552349    2.4978561 
       21.26   -3.0014927    1.3490111    2.5444332 
       21.28   -3.0020516    1.3344174    2.6558129 
        21.3   -3.0009243    1.2805419    2.9707863 
       21.32   -2.9993539    1.1712656    3.5436544 
       21.34   -2.9984312     1.131644    3.7576808 
       21.36   -2.9971899    1.2000955    3.4171753 
       21.38   -2.9986978    1.2851282    2.9743648 
        21.4   -2.9985498    1.3045416    2.8538207 
       21.42   -2.9985862    1.2660746     3.013255 
       21.44   -2.9976877    1.2606591    3.0052556 
       21.46   -2.9990515    1.2923177    2.8026147 
       21.48   -2.9988602    1.2943855     2.750282 
        21.5   -2.9982332    1.2995777    2.7137125 
       21.52    -2.997602    1.3060569     2.691706 
       21.54   -2.9986427     1.296362    2.7473861 
       21.56   -2.9984527    1.2716046    2.8569036 
       21.58   -2.9986826    1.2849733    2.7427558 
        21.6   -2.9989031    1.3560604    2.3222509 
       21.62   -3.0003439    1.3989386    2.0234668 
       21.64    -3.000962    1.4028656    1.9479443 
       21.66   -3.0025645    1.3891945    2.0215864 
       21.68   -3.0015781    1.3238251    2.3902544 
        21.7   -3.0013444     1.213088    2.9592903 
       21.72    -2.999207    1.2560438    2.7802787 
       21.74   -2.9983346    1.3024091    2.5630111 
       21.76   -2.9986767    1.2641827    2.7490959 
       21.78   -2.9966459    1.2797311    2.6973514 
        21.8   -2.9968746    1.3041948    2.6076004 
       21.82   -2.9989505    1.2677533    2.8045473 
       21.84   -2.9985137    1.2678832    2.8242637 
       21.86   -2.9990295    1.2689276    2.8065392 
       21.88    -2.997041    1.2832241    2.7079278 
        21.9   -2.9995921    1.3250829    2.4796464 
       21.92   -3.0004819    1.3251037    2.4702482 
       21.94   -2.9993906    1.3112459    2.5444749 
       21.96   -3.0000906    1.3307239    2.4756551 
       21.98   -3.0004393    1.3441592    2.4536914 
          22   -3.0003567    1.3627497    2.4280507 
       22.02   -3.0001106    1.3395994    2.6238411 
       22.04   -2.9988431    1.2490994    3.1457421 
       22.06   -3.0004093    1.1738678    3.5573005 
       22.08    -2.999287    1.1629924    3.5907534 
        22.1   -2.9983589    1.2720861    2.9859552 
       22.12   -2.9973837    1.3855368    2.3556202 
       22.14   -2.9967173    1.4039661    2.2408276 
       22.16   -2.9964634    1.3440144    2.5642596 
       22.18   -2.9972489    1.2998324    2.8449821 
        22.2   -2.9972274    1.2228507    3.2554292 
       22.22   -2.9975135    1.2131076    3.3058013 
       22.24   -2.9973416    1.2712884    2.9904944 
       22.26   -2.9989379    1.3029892    2.7844205 
       22.28    -2.998857    1.2925004    2.8068489 
        22.3   -2.9969866    1.2806461    2.8814468 
       22.32    -2.995981    1.2467037    3.0717755 
       22.34    -2.996487     1.241997    3.1026779 
       22.36   -2.9945922    1.2464866    3.0458646 
       22.38   -2.9944376    1.3580652    2.4720478 
        22.4   -2.9962284    1.4067456    2.2055077 
       22.42   -2.9980576    1.3774989    2.3506208 
       22.44   -2.9992279    1.3097294    2.6930903 
       22.46   -3.0019263    1.3010041    2.7537233 
       22.48   -3.0005775    1.2963366    2.8172637 
        22.5   -3.0008717    1.2409123    3.1522956 
       22.52   -2.9990937    1.1901629    3.4766492 
       22.54   -2.9969901    1.1590603    3.6641719 
       22.56   -2.9984361    1.2156134    3.4029466 
       22.58    -2.998359    1.2540863    3.2074167 
        22.6   -2.9975876    1.2955112    3.0006368 
       22.62   -2.9969419    1.3239911    2.8579211 
       22.64   -2.9983983    1.3133803    2.8934916 
       22.66   -2.9982653    1.2884525    2.9781287 
       22.68   -2.9989511    1.3170546    2.8015861 
        22.7   -2.9981001     1.286993    2.9152386 
       22.72   -2.9995031    1.2504662    3.0826362 
       22.74   -2.9995364     1.268942    3.0045154 
       22.76   -2.9965327    1.2897774    2.9416594 
       22.78   -2.9947115    1.2142276    3.3494926 
        22.8   -2.9945175    1.1692608    3.6011858 
       22.82   -2.9956608    1.2222966    3.3557913 
       22.84    -2.997147    1.2643634    3.1464457 
       22.86   -2.9981152    1.2287872    3.2926292 
       22.88   -2.9991019    1.2277014    3.2490686 
        22.9   -2.9981775    1.3089294    2.8003754 
       22.92   -2.9993148    1.3244581    2.6784632 
       22.94   -3.0010762    1.2889539    2.8473224 
       22.96   -3.0008125    1.2821269    2.9076147 
       22.98    -3.001013    1.3079525    2.7997149 
          23     -3.00138    1.3047876     2.803853 
       23.02   -3.0023459    1.2984119    2.8043838 
       23.04   -3.0025101     1.324778    2.6534643 
       23.06   -3.0010485    1.2945933    2.7767663 
       23.08   -3.0007615    1.2897244    2.7868054 
        23.1   -3.0004513    1.2764595    2.8234002 
       23.12   -3.0005471    1.2838247    2.7487375 
       23.14   -2.9993478    1.3252808    2.5176858 
       23.16   -2.9984871    1.3255455    2.4975312 
       23.18   -2.9976147    1.3115121    2.5626048 
        23.2   -2.9981193    1.2628817    2.7896147 
       23.22   -2.9957333    1.2265702    2.9519169 
       23.24   -2.9959979    1.3008094    2.5979117 
       23.26   -2.9973443    1.3183541    2.5522356 
       23.28   -2.9971978    1.2275125    3.0735683 
        23.3   -2.9965805    1.1557268    3.4821171 
       23.32   -2.9964183    1.1920852    3.3020028 
       23.34   -2.9955125    1.2415035    3.0109461 
       23.36   -2.9966407    1.2681245    2.8252715 
       23.38   -3.0005653    1.3000395    2.6373835 
        23.4   -2.9990342    1.3239986    2.5333453 
       23.42   -2.9975889    1.3225536    2.5888839 
       23.44   -2.9976966    1.3089652    2.7234746 
       23.46   -2.9969048    1.3027036    2.8159669 
       23.48   -2.9963756    1.3077957    2.8185507 
        23.5   -2.9973402    1.3170926    2.7814705 
       23.52   -2.9955027    1.2842482    2.9556891 
       23.54    -2.996609    1.2265993     3.244159 
       23.56   -2.9978236    1.2119331    3.3121707 
       23.58   -2.9956452    1.2205599    3.2512895 
        23.6   -2.9965244    1.2367616    3.1355173 
       23.62   -2.9957754    1.2692865    2.9450658 
       23.64   -2.9951778    1.2956513    2.7870752 
       23.66   -2.9958869    1.3576892    2.4797002 
       23.68   -2.9959534    1.4032542    2.2883919 
        23.7   -2.9947641    1.3650914    2.5376538 
       23.72   -2.9946996    1.2792999     3.033355 
       23.74   -2.9933599    1.2322979     3.330959 
       23.76   -2.9926712    1.1750346    3.6166092 
       23.78     -2.99271    1.1344691    3.7592861 
        23.8   -2.9936171    1.2008025    3.3541967 
       23.82   -2.9944875    1.2688151    2.9452286 
       23.84   -2.9940563    1.3091919    2.7465634 
       23.86   -2.9946727    1.2595792    3.0269871 
       23.88   -2.9946022    1.1755109     3.468957 
        23.9   -2.9949759    1.2000339    3.3795378 
       23.92   -2.9954491    1.1852722    3.4399699 
       23.94   -2.9969502    1.2147567    3.2737293 
       23.96   -2.9985312    1.2533418    3.0489847 
       23.98    -2.997764    1.2715865    2.9307404 
          24   -2.9975013    1.2552727    2.9864414 
       24.02   -2.9972774    1.2109231    3.1750389 
       24.04   -2.9979245     1.231755    3.0382804 
       24.06   -2.9983078    1.3109741    2.6156106 
       24.08   -2.9976436    1.3351094    2.4834784 
        24.1   -2.9982574    1.2815081    2.7624976 
       24.12   -2.9973155     1.215545    3.0948757 
       24.14   -2.9974112    1.2510182    2.8944509 
       24.16   -2.9989189    1.3063657    2.5535482 
       24.18   -2.9995468    1.3050776    2.4866784 
        24.2   -2.9993135    1.2817127    2.5490592 
       24.22   -3.0016524    1.3205051    2.3444693 
       24.24   -3.0015354    1.3397317    2.2745031 
       24.26   -3.0002015    1.2879731    2.5976887 
       24.28   -3.0007572    1.2158941    3.0436664 
        24.3   -2.9999695    1.2072008    3.1780653 
       24.32   -2.9991769    1.2039123    3.2504571 
       24.34   -2.9970387     1.210451    3.2470026 
       24.36   -2.9985324    1.2538329    3.0394209 
       24.38    -2.999281    1.2866619    2.8736645 
        24.4   -3.0003344    1.2998351    2.8105078 
       24.42   -3.0002728    1.2958699    2.8301011 
       24.44   -3.0007449    1.3169223    2.7279582 
       24.46   -3.0008613    1.3105693    2.7555985 
       24.48   -2.9996716    1.2736104    2.9264315 
        24.5    -2.999313     1.242497      3.04181 
       24.52   -2.9981145    1.2961377    2.7329263 
       24.54   -2.9989656    1.3590339      2.36984 
       24.56   -2.9984651    1.3522444     2.354227 
       24.58   -2.9995342    1.3528842    2.3214982 
        24.6   -2.9991324    1.3625743    2.2614453 
       24.62   -2.9972322    1.3524639    2.3332895 
       24.64   -2.9987643    1.2819105    2.7333327 
       24.66   -2.9981648    1.1794281    3.3168377 
       24.68   -2.9993899    1.1251351     3.661715 
        24.7   -3.0007473    1.1344567    3.6536845 
       24.72   -3.0000351    1.2336553     3.168647 
       24.74   -2.9997832    1.3062218    2.7685227 
       24.76   -2.9973204    1.3676975     2.453922 
       24.78   -2.9979877    1.3266348    2.6529804 
        24.8   -2.9971883    1.2532652    3.0141444 
       24.82   -2.9975962     1.208587    3.2017403 
       24.84   -2.9997083    1.2710347    2.8538558 
       24.86   -3.0014062    1.3360294    2.4786586 
       24.88   -2.9984132    1.3416981    2.4091377 
        24.9   -2.9987063    1.2930518     2.613535 
       24.92   -2.9979344    1.2897024    2.6119396 
       24.94   -2.9990446    1.3137742    2.4793246 
       24.96   -2.9998602       1.2598    2.7128811 
       24.98   -3.0006224    1.2542757    2.7430755 
          25   -2.9990469    1.2538958    2.7654855 
       25.02   -3.0002199    1.2539692     2.793221 
       25.04   -3.0009848    1.2573431    2.8002299 
       25.06   -3.0012932    1.2632014    2.7879626 
       25.08   -3.0009752    1.2445074    2.8942178 
        25.1   -2.9999956    1.2302472    3.0104728 
       25.12   -2.9998923    1.2009064    3.2388023 
       25.14   -3.0007143    1.1475987    3.5887256 
       25.16   -2.9986945    1.1543189    3.6148978 
       25.18   -2.9967863    1.2435581    3.2064449 
        25.2    -2.996364    1.2777438    3.0264757 
       25.22    -2.996102    1.3216895    2.8197255 
       25.24   -2.9938169    1.2944143     2.991384 
       25.26   -2.9950445    1.2474817    3.2930199 
       25.28   -2.9958813    1.2518713    3.3557989 
        25.3   -2.9978367    1.2714118    3.3082651 
       25.32   -2.9950308    1.2921882    3.2275232 
       25.34    -2.995135    1.2516887    3.3924555 
       25.36    -2.995591    1.2139487    3.4944711 
       25.38   -2.9961174    1.2912678    3.0260487 
        25.4   -2.9977185    1.3018219    2.8527351 
       25.42   -2.9984217    1.2955182    2.7674294 
       25.44   -3.0005287    1.3298995    2.5137357 
       25.46   -3.0005503    1.3059424    2.5682734 
       25.48   -2.9993354    1.3160352    2.4942943 
        25.5   -2.9994334    1.3252869    2.4361176 
       25.52    -3.000971    1.3056535    2.5468411 
       25.54   -2.9980355    1.2911399     2.652965 
       25.56   -2.9982711     1.322596    2.5278593 
       25.58    -2.998391    1.3244367    2.5424582 
        25.6   -2.9989602    1.2989774    2.6934674 
       25.62   -3.0005213     1.302106    2.7032065 
       25.64   -3.0015456    1.2765548     2.831567 
       25.66   -3.0017902    1.2857171    2.8106522 
       25.68   -3.0007403    1.2558274    2.9793714 
        25.7   -3.0003308    1.2004147    3.2465302 
       25.72   -2.9996521    1.2386247    3.0359551 
       25.74   -2.9981613    1.2980704     2.710845 
       25.76   -2.9959678    1.2638188    2.8609652 
       25.78   -2.9957691    1.1620912    3.3508278 
        25.8   -2.9947563    1.1526196    3.4091117 
       25.82   -2.9957515    1.1640222    3.3375861 
       25.84   -2.9985131    1.1986724    3.1301358 
       25.86   -2.9989184    1.2312664    2.9320626 
       25.88   -2.9986116    1.2219018    2.9571671 
        25.9   -3.0004816    1.2071837    3.0209323 
       25.92   -3.0018821    1.2445004    2.8504144 
       25.94   -3.0016821    1.2524762    2.8382473 
       25.96   -3.0020421    1.2075458    3.0900315 
       25.98   -2.9996356    1.2229066    3.0501409 
          26   -2.9997451    1.2704252     2.806853 
       26.02   -3.0000678    1.3237412    2.5101397 
       26.04   -3.0004408    1.3270736    2.4445053 
       26.06   -3.0014785    1.3043086    2.5008841 
       26.08   -3.0039386    1.3370996    2.3015103 
        26.1   -3.0031195    1.3479297    2.2152041 
       26.12   -3.0028633    1.3428599    2.2222204 
       26.14    -3.002257    1.3184506    2.3526767 
       26.16   -3.0005723    1.2705123    2.6261026 
       26.18   -3.0000996    1.2069003    2.9795518 
        26.2   -2.9996614    1.1804062    3.1410814 
       26.22   -3.0000732    1.2060006    3.0099912 
       26.24   -2.9985401    1.2991368    2.5361702 
       26.26   -2.9991142    1.3207892    2.3969854 
       26.28   -2.9984338    1.3064093    2.4666722 
        26.3   -2.9971261    1.2892452    2.5791851 
       26.32    -2.996592    1.2785805    2.6728782 
       26.34   -2.9960012    1.2821397    2.7197734 
       26.36   -2.9951631     1.259932    2.9085511 
       26.38   -2.9950762    1.2508458    3.0382686 
        26.4   -2.9972362    1.2218353    3.2392606 
       26.42   -2.9960962    1.1605239    3.5646338 
       26.44   -2.9971794     1.198108    3.4159113 
       26.46   -2.9977554    1.1503683    3.6486901 
       26.48   -2.9965812    1.1458894    3.6609577 
        26.5   -2.9958622    1.2121295    3.3073096 
       26.52   -2.9952239    1.2520259    3.0742989 
       26.54   -2.9946126    1.2422346    3.0895286 
       26.56   -2.9934545    1.2855768     2.858619 
       26.58      -2.9964    1.3672868    2.4414454 
        26.6   -2.9969141    1.3723413    2.4219656 
       26.62   -2.9955171    1.3111791    2.7609434 
       26.64   -2.9954977    1.2597105    3.0689559 
       26.66   -2.9960848    1.2365426    3.2292858 
       26.68   -2.9961906    1.1960666    3.4522952 
        26.7   -2.9967724    1.1581512    3.6407545 
       26.72     -2.99803     1.184065    3.5095158 
       26.74   -2.9997593    1.2136484    3.3581896 
       26.76   -2.9987265    1.2183054    3.3424463 
       26.78   -2.9978918    1.1993485     3.437966 
        26.8   -2.9975315    1.2053491    3.3980269 
       26.82   -2.9975464    1.2445399     3.174841 
       26.84   -2.9973609    1.2978108    2.8892118 
       26.86   -2.9954737    1.3122802     2.821258 
       26.88   -2.9946109    1.3054103    2.8921272 
        26.9   -2.9962869    1.2408698     3.253297 
       26.92   -2.9977159      1.16197    3.6728071 
       26.94   -2.9982116    1.1676888    3.6469278 
       26.96   -2.9981961    1.2034061     3.415879 
       26.98   -2.9991741    1.2470759    3.1306014 
          27   -2.9986881    1.2374962    3.1090646 
       27.02   -2.9980687     1.241578    3.0396011 
       27.04   -2.9990028    1.2388661    3.0013345 
       27.06    -2.999986    1.2360512    2.9613587 
       27.08   -3.0003746    1.2878045    2.6706781 
        27.1   -2.9985083    1.3621884     2.309183 
       27.12   -2.9994139    1.3654865    2.3284433 
       27.14   -2.9993348    1.2995311    2.7010949 
       27.16   -3.0008826    1.2495208    2.9804236 
       27.18   -2.9971755    1.2426666    3.0420184 
        27.2   -2.9954451    1.2257887    3.1108888 
       27.22   -2.9966971    1.2515091    2.9396779 
       27.24   -2.9987018    1.2665468    2.7995265 
       27.26   -2.9992351    1.2928066    2.6295846 
       27.28    -2.999453    1.2988041    2.5774909 
        27.3    -3.000067    1.3236454    2.4649623 
       27.32   -3.0002507    1.3160867    2.5185557 
       27.34   -3.0009963    1.3192335     2.524697 
       27.36   -3.0010079    1.3420838    2.4542818 
       27.38   -3.0021303    1.3058554    2.6852232 
        27.4   -3.0027626    1.2441068    3.0505941 
       27.42   -3.0021645    1.2066693    3.2794977 
       27.44   -3.0022287    1.2534929    3.0866443 
       27.46   -2.9998443    1.3054431    2.8797228 
       27.48   -2.9997611    1.2704208    3.0891394 
        27.5   -2.9986387    1.2356389    3.2750938 
       27.52   -2.9992304    1.2615226    3.1359069 
       27.54   -2.9975247    1.2779762    3.0227768 
       27.56   -2.9990275    1.2849602     2.940569 
       27.58   -2.9981049    1.3209936    2.7330918 
        27.6     -2.99744    1.2996856    2.8060835 
       27.62   -2.9972057    1.2217364    3.1412426 
       27.64   -2.9989286    1.1932672    3.2215657 
       27.66   -3.0006101    1.2148115    3.0535761 
       27.68   -3.0013207    1.2074908    3.0406652 
        27.7   -3.0010848    1.2032818    3.0539827 
       27.72    -3.000167    1.2308261    2.9298591 
       27.74   -2.9994189     1.278166    2.7065998 
       27.76   -3.0014609    1.3139906    2.5375662 
       27.78   -3.0018314    1.3289725    2.5115796 
        27.8    -3.000558    1.2307068    3.0599802 
       27.82    -2.998039    1.1409581    3.5464829 
       27.84   -2.9983178    1.2155854    3.1778746 
       27.86   -2.9973653      1.32049    2.6165548 
       27.88   -2.9984524    1.3443602    2.4478374 
        27.9   -2.9981029    1.3402132    2.4696494 
       27.92   -2.9994144    1.2902142    2.7513511 
       27.94   -2.9998094    1.2160428    3.1410108 
       27.96   -3.0004268    1.2427286    3.0080608 
       27.98   -3.0009552    1.3058886    2.6675369 
          28   -2.9991573      1.34115    2.4755865 
       28.02   -2.9988665    1.3274389    2.5393029 
       28.04   -2.9979234    1.2900153    2.7200124 
       28.06   -2.9994731    1.2793988    2.7609517 
       28.08   -2.9983937    1.2874973    2.7226073 
        28.1   -2.9991777    1.2456944    2.9120568 
       28.12   -2.9975327    1.2446652    2.9056242 
       28.14   -2.9952787    1.2525179    2.8624273 
       28.16   -2.9970996    1.2122972    3.0520265 
       28.18   -2.9965578    1.2168585    3.0445082 
        28.2   -2.9964019    1.2184787    3.0449747 
       28.22   -2.9982875    1.2247131    3.0082553 
       28.24   -2.9988208    1.2513412    2.8772598 
       28.26   -2.9982862    1.2216961    3.0220828 
       28.28    -2.999052    1.2394805    2.9487332 
        28.3    -2.998862    1.3061542    2.6578334 
       28.32   -2.9977841    1.2671144    2.8879789 
       28.34   -2.9986452    1.2257915    3.1440445 
       28.36   -2.9983837    1.1899833    3.3404538 
       28.38   -2.9986018    1.2247746    3.1839433 
        28.4   -2.9984907    1.2674396    3.0058085 
       28.42   -2.9964831    1.1920873     3.404094 
       28.44   -2.9949171    1.1540452    3.6169425 
       28.46   -2.9948193    1.1803644    3.4948193 
       28.48   -2.9976414    1.2055735     3.346747 
        28.5   -2.9983437    1.2587968    3.0454103 
       28.52   -2.9983769    1.2796425    2.8863984 
       28.54   -2.9992939    1.2476735    2.9832613 
       28.56   -3.0002705    1.2490535    2.9394101 
       28.58   -2.9994838     1.256632    2.8785841 
        28.6   -2.9989319    1.2768956    2.7759962 
       28.62   -2.9986309     1.311872    2.6302438 
       28.64   -2.9993558    1.2921479     2.743466 
       28.66   -2.9970439    1.2716431    2.8457281 
       28.68   -2.9953692    1.3107411    2.6528341 
        28.7   -2.9951171    1.2988394    2.7062683 
       28.72   -2.9970851    1.2189038    3.1034572 
       28.74   -2.9973107    1.1889185    3.2722661 
       28.76   -2.9968306    1.2464009    3.0137838 
       28.78   -2.9977272    1.2467738    3.0254324 
        28.8   -2.9990347    1.1875787    3.3300282 
       28.82    -2.997121    1.1717879    3.4265497 
       28.84   -2.9987219    1.1813815    3.3925452 
       28.86   -2.9983488     1.189085    3.3838114 
       28.88   -2.9965792    1.2568875    3.1303335 
        28.9   -2.9970741    1.2556171    3.2197213 
       28.92   -2.9961504     1.167934    3.7039395 
       28.94   -2.9953994    1.1413761    3.8298746 
       28.96   -2.9967965    1.1706081     3.612912 
       28.98   -2.9962912    1.1858311    3.4402005 
          29   -2.9963388    1.2583272    3.0193299 
       29.02   -2.9957565    1.3305957    2.6397945 
       29.04    -2.995869    1.3210911    2.6937407 
       29.06   -2.9970656    1.2530479    3.0453554 
       29.08   -2.9958746    1.2304057    3.1585382 
        29.1   -2.9955698    1.2734696    2.9052904 
       29.12   -2.9963847    1.3034467    2.6795185 
[...]
   27130   -1.3735007    1.3631547   0.97270437   0.56978465 
   27140   -1.3948386    1.4332267   0.66120151   0.57021339 
   27150    -1.410269    1.3935754   0.75609005   0.57070709 
   27160   -1.4210459     1.343817   0.92690484   0.57125428 
   27170   -1.4265477    1.3502349   0.93152475   0.57182582 
   27180   -1.4287382    1.3755897   0.88295159   0.57241844 
   27190   -1.4283543    1.4000683   0.85211649   0.57304153 
   27200   -1.4246178    1.3777112   0.98412466   0.57369787 
   27210   -1.4169868    1.3909376    0.9894319   0.57436791 
   27220     -1.40752    1.3955817    1.0066648   0.57504694 
   27230   -1.3955001    1.4052171    1.0092405    0.5757327 
   27240   -1.3814172    1.4232662   0.99537534   0.57642465 
   27250   -1.3651607    1.4023927     1.122803    0.5771221 
   27260   -1.3457161    1.4074663    1.1655579   0.57780404 
   27270   -1.3257729    1.4420353    1.1042901   0.57846213 
   27280   -1.3041993    1.4173441     1.238183   0.57910209 
   27290   -1.2832825     1.412284    1.2774913   0.57970194 
   27300    -1.261447     1.521095   0.90581653   0.58026025 
   27310   -1.2410414    1.5714778   0.73436501   0.58083805 
   27320   -1.2259081    1.5512278   0.81491746   0.58146927 
   27330   -1.2143588    1.5796081   0.73827049   0.58214615 
   27340   -1.2059425      1.61808   0.63552183   0.58288131 
   27350    -1.201273    1.6277923   0.64196853   0.58369378 
   27360   -1.2006956    1.6367234   0.65440732   0.58458513 
   27370   -1.2028538    1.6430555   0.67684486   0.58555327 
   27380   -1.2085733    1.6378742   0.75117596   0.58659413 
   27390   -1.2169662    1.5914854      0.98587   0.58769138 
   27400    -1.224333    1.5432535    1.2364827   0.58880135 
   27410   -1.2304312    1.5000432    1.4543324   0.58987461 
   27420   -1.2342992    1.4752564    1.5778674   0.59086791 
   27430   -1.2398063    1.5376175    1.3595852   0.59176027 
   27440   -1.2431213    1.6211694    1.0549706    0.5925897 
   27450   -1.2531879    1.5907365    1.1586199   0.59340651 
   27460   -1.2606759    1.5317389    1.3904198   0.59419582 
   27470   -1.2696313    1.4905645    1.5489161   0.59491411 
   27480   -1.2770255    1.4744069    1.5935412   0.59552973 
   27490   -1.2826626     1.469847    1.5758787   0.59603139 
   27500   -1.2875138    1.5094127    1.3962737   0.59642403 
   27510   -1.2914889    1.5385011    1.2526916   0.59673869 
   27520   -1.2989845    1.5268685    1.2412493   0.59700118 
   27530    -1.307917     1.540577    1.1345358   0.59721807 
   27540   -1.3164834    1.5513741    1.0474323   0.59740824 
   27550   -1.3280661    1.5046481    1.1735365   0.59758486 
   27560   -1.3400491    1.4352076    1.3892568   0.59772516 
   27570   -1.3499633    1.4246231    1.4030807   0.59779247 
   27580   -1.3556532    1.4102007       1.3934   0.59777703 
   27590   -1.3626664    1.5284534   0.88456289   0.59769255 
   27600   -1.3679317    1.6212821   0.46552198   0.59762661 
   27610    -1.379396    1.6239288   0.40225078   0.59765912 
   27620   -1.3954309    1.5686255   0.59660659   0.59780518 
   27630   -1.4134431    1.4739593   0.96365141    0.5980282 
   27640    -1.430926    1.3918798    1.2833109    0.5982595 
   27650   -1.4465253    1.3880943    1.2959172   0.59843988 
   27660    -1.460892     1.439426    1.0799584   0.59856469 
   27670    -1.475657     1.478378    0.9010922   0.59867267 
   27680   -1.4934546    1.4667279   0.91938595   0.59879637 
   27690   -1.5101148    1.4327745    1.0351511   0.59893417 
   27700   -1.5248333    1.3984696    1.1431156   0.59906435 
   27710   -1.5401108    1.4174937    1.0451604   0.59916959 
   27720   -1.5585164    1.4548338   0.87891491   0.59926647 
   27730   -1.5778413    1.4448305   0.89839394   0.59938339 
   27740   -1.5977002    1.3887948    1.0941003    0.5995172 
   27750   -1.6177121    1.2968424    1.3899317   0.59962925 
   27760   -1.6368926    1.3205912    1.2484049    0.5996732 
   27770   -1.6515904    1.3604996    1.0355813   0.59966688 
   27780   -1.6645833    1.3693394   0.94563026   0.59965017 
   27790   -1.6760504    1.3316371    1.0365936   0.59963965 
   27800   -1.6854373    1.2982776    1.1181054   0.59962083 
   27810   -1.6902977    1.2610064    1.2059557    0.5995771 
   27820   -1.6910478    1.2544354    1.1739528   0.59949258 
   27830   -1.6840149    1.3117767   0.92794159   0.59937548 
   27840   -1.6690359    1.3197377   0.88342215   0.59926658 
   27850   -1.6491209    1.3342332    0.8425492   0.59917883 
   27860   -1.6211645    1.4047904   0.63735967   0.59912377 
   27870    -1.587561    1.4453032   0.58678754   0.59913671 
   27880   -1.5499288    1.4349682   0.76668905   0.59922599 
   27890   -1.5093644    1.4392479   0.93047964   0.59936184 
   27900   -1.4661432     1.445929    1.1005772   0.59951162 
   27910   -1.4221293    1.4369348    1.3061779   0.59963976 
   27920    -1.380049    1.4861631    1.2528861   0.59971173 
   27930     -1.33511      1.56131    1.0614226   0.59973432 
   27940   -1.2955689     1.621253   0.91596353   0.59974316 
   27950   -1.2646082    1.5777063    1.1451915   0.59976044 
   27960   -1.2394495    1.5787278    1.2224271   0.59974964 
   27970   -1.2180656    1.6400169    1.0825863   0.59969695 
   27980   -1.2009916    1.6051254    1.2563741   0.59961983 
   27990   -1.1883173    1.6144751    1.2449452   0.59949326 
   28000   -1.1830624      1.65778    1.0956738   0.59931806 
   28010    -1.180169    1.6419664     1.172508    0.5991166 
   28020   -1.1818481    1.5776236    1.4294031   0.59887432 
   28030    -1.187567    1.5652134    1.4816557   0.59854708 
   28040   -1.1950664    1.5945529    1.3586568   0.59812334 
   28050   -1.2061749    1.5526272    1.4621437   0.59761908 
   28060   -1.2187874    1.5194975    1.5235016   0.59701836 
   28070   -1.2349147    1.5599743    1.3271779   0.59631262 
   28080   -1.2503734    1.5366973    1.3627172   0.59553083 
   28090   -1.2666788    1.4742241     1.531626    0.5946679 
   28100   -1.2869762    1.4754904    1.4397573   0.59369704 
   28110   -1.3069128    1.5178757    1.1582684   0.59263445 
   28120   -1.3236125    1.5538693   0.88791023   0.59153232 
   28130    -1.343089    1.5376791   0.81361432   0.59044114 
   28140   -1.3635994    1.4769891   0.90752645   0.58937612 
   28150   -1.3859071    1.4284585   0.94659514   0.58832284 
   28160   -1.4076604    1.4380804   0.76481946    0.5872765 
   28170   -1.4278831    1.4833309   0.46339823   0.58627179 
   28180   -1.4510234    1.4928412   0.31074532   0.58536376 
   28190   -1.4738973    1.4704091   0.31483751   0.58458355 
   28200   -1.4974325    1.4086856   0.49154748   0.58393039 
   28210   -1.5188708     1.351052   0.67090273   0.58337276 
   28220    -1.539946    1.3524079   0.63946683   0.58287974 
   28230   -1.5617257    1.3674454   0.54867465   0.58245486 
   28240   -1.5808649    1.3370147   0.62005854   0.58211272 
   28250   -1.5988659    1.2911899   0.74783203   0.58184138 
   28260   -1.6135219    1.3076907   0.65505059   0.58162127 
   28270   -1.6266509    1.3440372   0.47530088   0.58146822 
   28280   -1.6376115    1.3774862   0.29504164   0.58141719 
   28290   -1.6491882    1.4056146   0.13995175   0.58150466 
   28300   -1.6586266    1.3786016    0.2026512   0.58175906 
   28310   -1.6641444    1.3140622   0.41522804   0.58217005 
   28320   -1.6633256    1.3410386   0.33093594   0.58270618 
   28330   -1.6614433     1.370442    0.2546947   0.58337846 
   28340   -1.6543794    1.3817708   0.28705169   0.58420284 
   28350   -1.6403612    1.3622434   0.47362804   0.58517332 
   28360   -1.6214201    1.3102574   0.80039071   0.58625436 
   28370   -1.5954086    1.2861232    1.0403802   0.58738662 
   28380   -1.5613403    1.3024845    1.1226473   0.58852332 
   28390     -1.52017    1.3623221    1.0221198   0.58964851 
   28400   -1.4721122    1.4566407   0.79216242   0.59078112 
   28410   -1.4211357    1.5344953   0.64619613   0.59196325 
   28420   -1.3705202    1.5561203   0.73184223   0.59322174 
   28430    -1.320789    1.5655269   0.88061438   0.59454334 
   28440    -1.279904    1.6111874   0.88626264   0.59590288 
   28450   -1.2421464    1.6666844   0.84140428   0.59729718 
   28460   -1.2135977    1.6587566    1.0266285   0.59873065 
   28470   -1.1897512    1.5558407    1.5517087    0.6001644 
   28480    -1.167218    1.5541138    1.6800688   0.60150612 
   28490   -1.1494438    1.6917126    1.2667457   0.60273307 
   28500   -1.1392512    1.6996262    1.3002738   0.60390701 
   28510   -1.1347556    1.6460793    1.5675601   0.60502516 
   28520   -1.1361859    1.6825629     1.522459   0.60604494 
   28530   -1.1438172    1.6426163     1.736132   0.60696141 
   28540   -1.1546065     1.596892    1.9728351   0.60773659 
   28550   -1.1722628     1.573521    2.1209551   0.60832416 
   28560   -1.1877146    1.4780784    2.4824785    0.6086866 
   28570   -1.2047708    1.5062174    2.3179918   0.60876457 
   28580   -1.2262956    1.6068778    1.8326979   0.60858508 
   28590   -1.2506309    1.5741913    1.8167182   0.60822794 
   28600   -1.2780504    1.5414865    1.8045837   0.60770464 
   28610   -1.3103593    1.5811343    1.5342669   0.60702214 
   28620   -1.3447531    1.5576874    1.4967274   0.60622314 
   28630   -1.3825217    1.5394128    1.4554211   0.60532003 
   28640   -1.4183121     1.507309    1.4689216   0.60431905 
   28650   -1.4536058    1.4361506    1.5981483    0.6032153 
   28660    -1.489275    1.4742925    1.3193543   0.60199472 
   28670   -1.5222856    1.4984431    1.0836146   0.60070185 
   28680   -1.5525762    1.4993687   0.95418232   0.59938386 
   28690   -1.5820952    1.4591613   0.99342264   0.59806467 
   28700   -1.6069428     1.404239    1.1018378   0.59673897 
   28710   -1.6283555    1.3778951    1.1021308   0.59538776 
   28720   -1.6446881    1.4439978   0.77471362   0.59401599 
   28730   -1.6568835     1.507337   0.46997433   0.59268189 
   28740   -1.6703815    1.4705719   0.54222731   0.59143999 
   28750   -1.6803574    1.3932307   0.77142343   0.59028009 
   28760    -1.689192    1.3859334   0.73656513     0.589165 
   28770   -1.6919787    1.4131978    0.5611545   0.58809892 
   28780   -1.6915909    1.4155511    0.4723265   0.58711285 
   28790   -1.6895574    1.4100253   0.43093382   0.58622563 
   28800   -1.6857085    1.3846748   0.48458701   0.58544492 
   28810   -1.6784014    1.3350302   0.63617166   0.58475993 
   28820   -1.6685467    1.3462166   0.57897646   0.58414696 
   28830   -1.6541734     1.362821   0.50913398   0.58361377 
   28840    -1.637151    1.3324879    0.6141467   0.58317058 
   28850     -1.61783     1.353213   0.56954823   0.58280409 
   28860   -1.5968714    1.3595104   0.59021638   0.58251844 
   28870   -1.5746705    1.3253509   0.75422169   0.58230879 
   28880   -1.5529681    1.3174492   0.82069527   0.58214733 
   28890   -1.5297059     1.363206   0.69478995   0.58202294 
   28900   -1.5065996    1.4302989   0.49550407   0.58195861 
   28910   -1.4875082    1.4687372   0.41694658   0.58199086 
   28920   -1.4700693    1.4368532   0.61509613   0.58213325 
   28930   -1.4555166    1.3806248   0.90693842   0.58235065 
   28940   -1.4394535    1.3483132    1.0885309   0.58258859 
   28950   -1.4217373    1.3948612   0.95824667   0.58281522 
   28960   -1.4047786     1.459282   0.75296554   0.58305145 
   28970   -1.3895451    1.4482933   0.82665654   0.58333213 
   28980   -1.3735216    1.4478218   0.88619319   0.58364972 
   28990   -1.3580312     1.483386   0.82065327   0.58399242 
   29000   -1.3471081     1.519747   0.75533117   0.58437246 
   29010   -1.3329666    1.4957523   0.90770831   0.58479885 
   29020   -1.3168797      1.49679   0.95592031    0.5852476 
   29030   -1.3050709    1.5795637   0.68897387   0.58571383 
   29040   -1.2959634    1.5941741   0.65858055   0.58624022 
   29050   -1.2866728    1.4822518    1.0772944   0.58682938 
   29060   -1.2775388    1.4614008    1.1680855   0.58741345 
   29070   -1.2703609    1.5465871   0.87508772   0.58797486 
   29080   -1.2618742    1.5744808   0.79665187   0.58856053 
   29090   -1.2576167    1.5609486   0.87271333   0.58918808 
   29100   -1.2510505      1.58072   0.82730695   0.58984775 
   29110   -1.2503083    1.6116331   0.73303321   0.59054748 
   29120   -1.2511343     1.609242   0.78086792   0.59130298 
   29130   -1.2544666    1.5693883   0.99046261   0.59210517 
   29140    -1.260904    1.5274056    1.2056031   0.59291512 
   29150   -1.2697016    1.5619067    1.1262246   0.59369647 
   29160   -1.2815294    1.5900578    1.0351961   0.59445847 
   29170   -1.2964758    1.5818493    1.0586112   0.59521773 
   29180   -1.3162551    1.5290199    1.2179916   0.59596834 
   29190   -1.3355917     1.536451    1.1484485   0.59668589 
   29200   -1.3597934    1.5799805   0.93907755   0.59738195 
   29210   -1.3892601    1.5513995    0.9906914   0.59809057 
   29220   -1.4205322    1.4818716    1.1989224   0.59880376 
   29230   -1.4540961    1.4352894    1.3180169   0.59948502 
   29240   -1.4838019    1.3785402    1.4536241   0.60010741 
   29250   -1.5111928    1.3632391    1.4164349   0.60064716 
   29260    -1.536587    1.4302807    1.0690162    0.6011138 
   29270   -1.5650541    1.4839114   0.77968117   0.60156843 
   29280   -1.5924922    1.4811432   0.74762233   0.60206573 
   29290   -1.6170811    1.4107862    1.0098755   0.60261193 
   29300   -1.6384486    1.3248259    1.3393926   0.60315924 
   29310   -1.6530845    1.2909081    1.4581093   0.60364731 
   29320   -1.6653463    1.3362367    1.2547161   0.60405337 
   29330   -1.6736116    1.3785943    1.0503093   0.60441086 
   29340   -1.6777219    1.3694308    1.0446331   0.60475672 
   29350   -1.6790937    1.3897484   0.94901312   0.60509843 
   29360   -1.6784275    1.3834639   0.96041188   0.60545014 
   29370   -1.6720934    1.3584442      1.07046   0.60581052 
   29380   -1.6637905     1.338114    1.1822199   0.60615913 
   29390   -1.6474729    1.3767736    1.0978029   0.60647768 
   29400    -1.626132    1.4282309   0.97597891   0.60677924 
   29410   -1.5995928    1.4710092   0.91323656   0.60708644 
   29420    -1.563271    1.4943941   0.97124549     0.607411 
   29430   -1.5205899    1.4911996    1.1700477   0.60774099 
   29440    -1.471732    1.4799407    1.4240242   0.60803831 
   29450   -1.4143566    1.4769308    1.6586224    0.6082539 
   29460   -1.3549431    1.4353564    2.0070661   0.60833618 
   29470   -1.2914286    1.4485841    2.1160193   0.60822128 
   29480   -1.2285121    1.5880595    1.7279265   0.60789053 
   29490   -1.1706993    1.6998237    1.4141124   0.60740734 
   29500   -1.1259658    1.7418019    1.3474612   0.60683055 
   29510   -1.0959178     1.750567    1.4091446   0.60617501 
   29520     -1.08018    1.6982443    1.6771542   0.60542537 
   29530   -1.0747374    1.6479342    1.8869877   0.60453234 
   29540   -1.0781363    1.6818172    1.7151358   0.60345838 
   29550    -1.085176    1.7823694    1.2605962   0.60223515 
   29560   -1.1014111    1.7962513    1.1116002   0.60094101 
   29570   -1.1246667    1.7399274    1.2441586   0.59960577 
   29580   -1.1537413    1.6681486    1.4555649    0.5982075 
   29590   -1.1877308    1.6058526    1.6160021   0.59670523 
   29600   -1.2212422    1.5811173    1.6102129    0.5950671 
   29610   -1.2579717    1.5925287    1.4560753   0.59329685 
   29620    -1.293123    1.5341843    1.5288768   0.59141621 
   29630   -1.3257374     1.483961    1.5594468   0.58941625 
   29640    -1.357988     1.448659    1.5146695   0.58729195 
   29650    -1.385417    1.4525704    1.3262914   0.58505443 
   29660   -1.4105038    1.4780048    1.0692427   0.58274025 
   29670   -1.4320766     1.476453    0.9353729   0.58039819 
   29680   -1.4526972     1.463457   0.87081651    0.5780574 
   29690   -1.4711054     1.409505    0.9597037   0.57573079 
   29700   -1.4872647    1.3278054    1.1300557   0.57340287 
   29710   -1.4986004    1.3186287    1.0314149   0.57104791 
   29720   -1.5035689    1.3823719    0.6805337   0.56868658 
   29730   -1.5025008    1.4166583   0.45680295   0.56638326 
   29740   -1.4978019    1.3838697   0.49384915   0.56418048 
   29750   -1.4912446    1.3782037    0.4764289   0.56207875 
   29760     -1.48164    1.3577127   0.53729679   0.56007858 
   29770   -1.4692304    1.3002704   0.73219198   0.55816745 
   29780   -1.4517407    1.3171605   0.68299704   0.55631527 
   29790   -1.4239505    1.3815468    0.4838615   0.55452762 
   29800   -1.3914269     1.449148   0.31054498   0.55284362 
   29810   -1.3559629    1.4344361   0.44293867   0.55129198 
   29820   -1.3184011    1.3913578   0.67312591   0.54984998 
   29830   -1.2817452    1.4291889   0.61246557   0.54847923 
   29840   -1.2411012    1.4900043   0.46330215   0.54718711 
   29850   -1.2035017    1.4961591   0.49048974   0.54599869 
   29860   -1.1689855    1.4991359   0.53702893   0.54491155 
   29870   -1.1395554    1.5082348   0.56586409   0.54391644 
   29880   -1.1153078    1.5129997    0.6097233    0.5430071 
   29890   -1.0950842    1.5075926   0.68485094   0.54217423 
   29900    -1.078357    1.4770069   0.83156151   0.54140198 
   29910    -1.065299    1.4402034   0.97382512   0.54066216 
   29920   -1.0519578    1.4562743   0.92082189   0.53993043 
   29930    -1.040996    1.4847968   0.79745501   0.53921451 
   29940   -1.0300731     1.555665   0.52894352   0.53854119 
   29950   -1.0217613    1.6040683   0.33656451   0.53795847 
   29960   -1.0163475    1.6073315    0.3225289   0.53750323 
   29970   -1.0134268    1.5519598   0.53535558   0.53717705 
   29980   -1.0144643    1.5076567   0.74015403   0.53694201 
   29990   -1.0152016     1.487315   0.87901117   0.53675796 
   30000   -1.0150846    1.4675426    1.0086847   0.53659675 
Loop time of 5.35368 on 8 procs for 30000 steps with 125 atoms

Performance: 968305.544 tau/day, 5603.620 timesteps/s
88.7% CPU use with 1 MPI tasks x 8 OpenMP threads

MPI task timing breakdown:
Section |  min time  |  avg time  |  max time  |%varavg| %total
---------------------------------------------------------------
Pair    | 1.7114     | 1.7114     | 1.7114     |   0.0 | 31.97
Neigh   | 0.011311   | 0.011311   | 0.011311   |   0.0 |  0.21
Comm    | 0.14009    | 0.14009    | 0.14009    |   0.0 |  2.62
Output  | 0.056891   | 0.056891   | 0.056891   |   0.0 |  1.06
Modify  | 3.419      | 3.419      | 3.419      |   0.0 | 63.86
Other   |            | 0.015      |            |       |  0.28

Nlocal:        125.000 ave         125 max         125 min
Histogram: 1 0 0 0 0 0 0 0 0 0
Nghost:        1709.00 ave        1709 max        1709 min
Histogram: 1 0 0 0 0 0 0 0 0 0
Neighs:        12981.0 ave       12981 max       12981 min
Histogram: 1 0 0 0 0 0 0 0 0 0

Total # of neighbors = 12981
Ave neighs/atom = 103.84800
Neighbor list builds = 218
Dangerous builds = 0

variable avedens equal f_aves[1]
variable avetemp equal f_aves[2]
variable avepress equal f_aves[3]
variable errdens equal sqrt(f_aves[4]-f_aves[1]*f_aves[1])
variable errtemp equal sqrt(f_aves[5]-f_aves[2]*f_aves[2])
variable errpress equal sqrt(f_aves[6]-f_aves[3]*f_aves[3])

print "Averages"
Averages
print "--------"
--------
print "Density: ${avedens}"
Density: 0.579634386097022
print "Stderr: ${errdens}"
Stderr: 0.022062231608339
print "Temperature: ${avetemp}"
Temperature: 1.49805435769085
print "Stderr: ${errtemp}"
Stderr: 0.112612968539989
print "Pressure: ${avepress}"
Pressure: 0.997706053122397
print "Stderr: ${errpress}"
Stderr: 0.364031297100651
