ITEM: TIMESTEP
0
ITEM: NUMBER OF ATOMS
125
ITEM: BOX BOUNDS pp pp pp
0.0000000000000000e+00 5.3860867250797098e+00
0.0000000000000000e+00 5.3860867250797098e+00
0.0000000000000000e+00 5.3860867250797098e+00
ITEM: ATOMS id x y z
1 0 0 0
2 1.07722 0 0
3 2.15443 0 0
4 0 1.07722 0
5 1.07722 1.07722 0
6 2.15443 1.07722 0
7 0 2.15443 0
8 1.07722 2.15443 0
9 2.15443 2.15443 0
10 0 0 1.07722
11 1.07722 0 1.07722
12 2.15443 0 1.07722
13 0 1.07722 1.07722
14 1.07722 1.07722 1.07722
15 2.15443 1.07722 1.07722
16 0 2.15443 1.07722
17 1.07722 2.15443 1.07722
18 2.15443 2.15443 1.07722
19 0 0 2.15443
20 1.07722 0 2.15443
21 2.15443 0 2.15443
22 0 1.07722 2.15443
23 1.07722 1.07722 2.15443
24 2.15443 1.07722 2.15443
25 0 2.15443 2.15443
26 1.07722 2.15443 2.15443
27 2.15443 2.15443 2.15443
28 0 0 3.23165
29 1.07722 0 3.23165
30 2.15443 0 3.23165
31 0 1.07722 3.23165
32 1.07722 1.07722 3.23165
33 2.15443 1.07722 3.23165
34 0 2.15443 3.23165
35 1.07722 2.15443 3.23165
36 2.15443 2.15443 3.23165
37 0 0 4.30887
38 1.07722 0 4.30887
39 2.15443 0 4.30887
40 0 1.07722 4.30887
41 1.07722 1.07722 4.30887
42 2.15443 1.07722 4.30887
43 0 2.15443 4.30887
44 1.07722 2.15443 4.30887
45 2.15443 2.15443 4.30887
46 0 3.23165 0
47 1.07722 3.23165 0
48 2.15443 3.23165 0
49 0 4.30887 0
50 1.07722 4.30887 0
51 2.15443 4.30887 0
52 0 3.23165 1.07722
53 1.07722 3.23165 1.07722
54 2.15443 3.23165 1.07722
55 0 4.30887 1.07722
56 1.07722 4.30887 1.07722
57 2.15443 4.30887 1.07722
58 0 3.23165 2.15443
59 1.07722 3.23165 2.15443
60 2.15443 3.23165 2.15443
61 0 4.30887 2.15443
62 1.07722 4.30887 2.15443
63 2.15443 4.30887 2.15443
64 0 3.23165 3.23165
65 1.07722 3.23165 3.23165
66 2.15443 3.23165 3.23165
67 0 4.30887 3.23165
68 1.07722 4.30887 3.23165
69 2.15443 4.30887 3.23165
70 0 3.23165 4.30887
71 1.07722 3.23165 4.30887
72 2.15443 3.23165 4.30887
73 0 4.30887 4.30887
74 1.07722 4.30887 4.30887
75 2.15443 4.30887 4.30887
76 3.23165 0 0
77 4.30887 0 0
78 3.23165 1.07722 0
79 4.30887 1.07722 0
80 3.23165 2.15443 0
81 4.30887 2.15443 0
82 3.23165 0 1.07722
83 4.30887 0 1.07722
84 3.23165 1.07722 1.07722
85 4.30887 1.07722 1.07722
86 3.23165 2.15443 1.07722
87 4.30887 2.15443 1.07722
88 3.23165 0 2.15443
89 4.30887 0 2.15443
90 3.23165 1.07722 2.15443
91 4.30887 1.07722 2.15443
92 3.23165 2.15443 2.15443
93 4.30887 2.15443 2.15443
94 3.23165 0 3.23165
95 4.30887 0 3.23165
96 3.23165 1.07722 3.23165
97 4.30887 1.07722 3.23165
98 3.23165 2.15443 3.23165
99 4.30887 2.15443 3.23165
100 3.23165 0 4.30887
101 4.30887 0 4.30887
102 3.23165 1.07722 4.30887
103 4.30887 1.07722 4.30887
104 3.23165 2.15443 4.30887
105 4.30887 2.15443 4.30887
106 3.23165 3.23165 0
107 4.30887 3.23165 0
108 3.23165 4.30887 0
109 4.30887 4.30887 0
110 3.23165 3.23165 1.07722
111 4.30887 3.23165 1.07722
112 3.23165 4.30887 1.07722
113 4.30887 4.30887 1.07722
114 3.23165 3.23165 2.15443
115 4.30887 3.23165 2.15443
116 3.23165 4.30887 2.15443
117 4.30887 4.30887 2.15443
118 3.23165 3.23165 3.23165
119 4.30887 3.23165 3.23165
120 3.23165 4.30887 3.23165
121 4.30887 4.30887 3.23165
122 3.23165 3.23165 4.30887
123 4.30887 3.23165 4.30887
124 3.23165 4.30887 4.30887
125 4.30887 4.30887 4.30887
ITEM: TIMESTEP
1000
ITEM: NUMBER OF ATOMS
125
ITEM: BOX BOUNDS pp pp pp
0.0000000000000000e+00 5.3860867250797098e+00
0.0000000000000000e+00 5.3860867250797098e+00
0.0000000000000000e+00 5.3860867250797098e+00
ITEM: ATOMS id x y z
1 -0.0183923 0.640639 0.361741
23 0.84678 0.741102 2.35215
27 2.05048 2.06517 1.97243
4 0.529254 1.47947 -0.0319526
5 0.952728 0.373362 0.160283
6 2.46991 1.2655 0.397874
26 1.06795 2.43696 2.24686
8 1.38056 1.95611 0.272885
24 2.08272 1.02665 2.18071
10 0.0100301 0.139381 1.27975
21 1.62574 0.0442079 2.38781
12 1.93653 0.370028 0.841055
25 0.107527 2.06879 1.99095
14 1.093 0.296808 1.36286
15 1.62275 1.35451 1.10567
16 0.0916314 2.12168 0.700557
17 0.383652 1.13471 1.32224
18 2.21815 2.36591 0.715479
45 1.75911 2.22308 4.14082
29 0.496314 -0.180168 3.361
30 1.82944 0.764325 3.10653
44 0.628048 1.93121 4.0637
32 1.05605 0.714635 3.75646
33 2.17105 1.73418 2.98166
34 0.149745 1.54597 2.93165
35 1.22455 1.62675 3.24916
36 1.63557 2.74815 3.23613
104 2.74476 2.2925 4.52974
42 2.1109 1.13078 4.00894
41 1.39761 1.16934 4.81867
40 0.297152 0.501042 4.74164
9 2.04049 2.83657 5.15689
63 2.54221 4.21746 1.87518
47 0.792697 2.81375 0.033416
20 0.771414 4.95646 2.22014
62 1.48928 4.24159 2.41185
50 1.87973 4.02315 0.667342
11 1.74665 4.83589 1.43598
52 0.817517 3.81058 0.713244
53 0.989583 2.59214 1.23936
61 0.0938926 4.24157 2.64666
55 0.244483 4.32293 1.43822
56 1.35422 3.84814 1.54715
57 2.63107 4.84242 0.737374
58 0.620861 3.37889 2.22271
59 1.69112 3.20264 2.38598
2 0.888089 4.87456 0.71893
88 2.48063 5.55871 1.77556
75 1.78349 4.44586 4.27201
65 0.935652 3.63055 3.20103
66 2.06296 3.71858 3.4612
74 1.07363 3.91214 5.11161
68 0.365231 4.19553 4.06614
69 1.65391 4.90517 3.34411
70 0.725973 3.1173 4.21203
71 1.84899 3.36546 4.39342
124 2.95675 4.51766 3.56567
37 -0.0349869 4.81819 4.82484
38 0.928701 5.05003 4.41893
94 2.52145 5.36039 2.89854
39 2.23526 5.41201 4.13027
48 2.55466 4.15999 5.28617
51 2.19906 5.02812 5.06439
22 5.02548 0.931823 2.14639
77 4.13689 0.456381 0.534813
91 4.03452 1.58837 1.88829
90 3.16833 0.869312 2.14546
80 3.55874 2.43299 -0.0565681
81 4.52472 2.23794 0.103858
82 2.95446 0.565776 0.904737
83 3.97358 0.141933 1.54739
84 2.65029 1.47938 1.48286
85 3.76549 1.53487 0.532562
86 3.33691 2.52215 1.00546
87 4.45225 2.37861 1.18118
93 4.62864 2.08325 2.64928
13 4.78629 1.23082 1.07449
97 4.0917 0.811096 2.6864
105 4.32547 2.1245 4.35743
43 5.20631 2.27671 3.63296
96 2.93607 0.923801 3.28578
119 4.18989 2.75487 3.36501
98 3.42468 1.55449 3.9852
99 4.36197 1.68158 3.49858
100 3.26003 0.227961 3.93555
31 5.01397 0.812031 3.27782
102 4.16259 0.78285 3.9611
103 5.10079 1.36932 4.37238
78 3.45167 1.35895 4.92668
7 5.28983 2.31814 4.78897
3 2.72199 0.599083 4.87099
92 3.40949 1.67723 2.83845
79 4.68883 0.950049 5.14845
89 3.28839 4.8769 2.47483
76 3.18992 5.36039 0.087737
60 2.723 2.73693 2.36791
54 2.62408 3.51428 1.15044
110 3.98155 3.5637 1.33242
111 4.99658 3.16072 0.659818
112 3.52615 4.17688 0.28466
113 4.48176 4.69819 0.878382
114 3.87303 2.51607 2.08123
115 4.91707 3.14016 1.76183
116 3.51207 4.66069 1.33562
117 4.78929 4.82824 1.80289
49 5.36873 4.20256 0.413617
121 4.09136 3.5871 2.37139
118 2.74672 2.70618 3.61905
73 4.49502 4.38102 4.19478
120 3.20133 3.88625 2.75718
28 4.89088 5.34513 4.00374
122 3.68338 2.87977 4.40452
123 4.86143 3.20223 4.00052
125 3.6919 3.60141 3.75078
64 5.12359 3.1888 2.83024
67 4.5527 4.13619 3.18787
72 2.76614 3.71359 4.18633
95 3.91049 4.89605 3.41019
101 4.1076 5.55865 4.80787
106 3.02569 3.22288 5.17363
19 5.01283 5.33271 2.72983
107 4.16067 3.527 5.10494
108 3.13896 4.82362 4.56727
109 4.41603 4.6379 5.20339
46 5.32121 3.6539 4.90874
ITEM: TIMESTEP
2000
ITEM: NUMBER OF ATOMS
125
ITEM: BOX BOUNDS pp pp pp
0.0000000000000000e+00 5.3860867250797098e+00
0.0000000000000000e+00 5.3860867250797098e+00
0.0000000000000000e+00 5.3860867250797098e+00
ITEM: ATOMS id x y z
18 2.18101 2.03868 0.999508
23 1.00856 1.22636 2.10703
27 1.84177 2.55247 1.83227
20 0.58269 0.129176 2.75891
5 0.942252 0.210443 0.214059
6 2.50125 1.16915 0.417097
26 0.679259 2.34671 2.37133
8 1.4493 1.71842 0.035537
24 2.01816 0.763986 1.92711
17 0.0516156 0.88795 0.868146
21 1.35214 -0.376817 2.2556
12 1.57485 0.891164 0.831728
25 -0.0856875 1.83739 1.6295
14 0.681374 0.402565 1.66945
15 1.26265 1.76871 1.18004
16 0.406677 2.04671 0.796792
33 1.97884 1.70102 2.41378
45 2.01174 2.21222 4.80059
3 2.5015 0.7643 4.78754
30 1.7141 0.845785 2.86655
44 0.95902 1.93938 4.23622
32 0.820226 0.847535 3.80851
118 2.10642 2.29642 3.32574
34 0.257745 1.09714 2.96129
35 1.16274 1.65531 3.16606
40 0.477354 0.274149 4.74494
41 1.35352 0.743324 4.70282
42 1.88223 1.47439 4.01298
94 2.65281 -0.106249 3.1786
39 2.02218 0.465971 3.88147
4 0.516891 1.29745 5.23743
47 0.769217 2.50957 5.04697
63 2.24501 3.84815 1.64485
54 2.47044 3.23984 0.767491
2 0.348628 5.07603 0.772148
62 1.72764 4.07585 2.54934
50 1.88641 4.24597 0.559221
11 1.69807 5.19452 1.20395
52 1.00614 3.75066 0.478436
53 1.32414 2.76157 0.58965
59 2.38111 3.24417 2.61672
55 0.267405 4.44085 1.6691
56 1.31965 4.10565 1.49438
57 2.81216 4.63935 1.14167
58 0.938696 3.30934 2.15204
51 2.02815 5.5177 0.189647
75 2.11244 4.76894 3.94423
65 1.22944 4.18241 3.73842
66 2.198 3.80855 3.39892
74 1.09251 3.87417 4.81515
68 0.0114545 4.11617 4.1396
69 1.45527 5.2001 3.3787
70 0.601539 3.07727 4.01268
71 1.61721 3.10438 4.09652
9 2.08603 3.25451 5.10629
37 -0.0383658 4.54243 5.05779
38 1.08203 5.02878 4.39997
64 0.360045 3.22096 3.12586
46 0.2376 3.59316 5.13379
48 2.3169 4.60602 4.98395
29 0.163574 5.12026 3.67652
36 1.44213 3.09748 2.99585
61 0.103692 4.28082 3.07785
22 5.26728 0.919004 1.96295
77 3.92607 0.263067 0.436914
91 4.34959 1.52934 1.98123
90 2.95736 0.387591 2.27859
80 3.87698 2.27388 -0.0572872
81 4.87398 1.83774 0.132699
82 2.72717 0.38306 1.07831
83 4.07465 0.55502 1.46014
84 2.99683 1.49449 2.05423
85 3.23511 1.70874 1.09706
60 2.90443 2.61474 1.56343
87 4.45885 2.44829 1.04825
93 4.90021 2.54749 2.35441
13 4.34683 1.42289 0.853487
105 4.3014 2.14702 3.87242
43 5.49249 2.10907 3.25845
96 2.71091 1.31439 3.18988
104 2.96297 1.78681 4.99688
98 3.09493 2.00082 3.92291
99 4.61817 1.33163 3.12857
100 3.15994 0.619423 3.93356
31 5.04254 0.649911 3.78946
102 4.15364 0.997654 4.18606
103 5.38479 1.54693 4.38322
78 3.83402 1.17689 5.252
7 5.1754 2.65652 4.591
79 4.84395 0.879086 5.07937
92 3.4158 2.28608 2.86365
101 3.81047 0.241879 4.78457
97 3.68287 0.82233 3.10386
89 3.85284 5.03142 2.45211
76 3.03006 5.54077 0.0869288
88 2.65969 4.53817 2.38572
121 4.54744 3.56834 2.41403
110 4.55742 3.5152 1.27808
111 5.1377 2.82428 0.209314
112 3.18707 4.02358 0.0372763
113 3.85867 4.76293 1.02464
114 3.88576 2.71897 1.95942
115 5.43026 3.04241 1.32687
116 3.38416 3.8548 1.73874
117 4.57981 4.45448 1.80813
49 5.35035 4.12019 0.582218
86 3.61657 3.14239 0.949141
10 4.96933 5.52185 1.38838
1 4.92509 5.34994 0.328255
120 3.6655 3.54135 2.78202
19 4.94791 5.53243 2.63504
109 4.09717 4.52796 5.32378
73 4.50637 3.78247 4.69405
119 4.30649 2.88436 3.20046
28 4.48019 4.86888 4.40858
122 4.00573 2.941 4.55579
123 4.94092 3.36588 3.76194
125 3.85822 3.78845 3.85542
108 3.14755 4.82632 4.27457
67 4.51808 4.33027 3.32223
72 2.85706 3.90399 4.32912
95 4.19354 5.32954 3.46923
124 3.39207 4.56134 3.25493
106 3.05469 2.87164 5.34477
107 4.2545 3.34926 5.58565
ITEM: TIMESTEP
3000
ITEM: NUMBER OF ATOMS
125
ITEM: BOX BOUNDS pp pp pp
0.0000000000000000e+00 5.3860867250797098e+00
0.0000000000000000e+00 5.3860867250797098e+00
0.0000000000000000e+00 5.3860867250797098e+00
ITEM: ATOMS id x y z
18 2.50296 2.21209 0.414404
23 0.440724 1.03265 1.93441
16 0.717592 2.04436 0.215263
20 0.531019 0.244877 2.60783
51 1.86125 0.318364 0.449784
6 2.73257 1.05454 0.420295
26 0.630547 2.21864 2.16789
25 0.0275854 1.96101 1.03524
24 1.65954 0.614702 1.50489
17 -0.0405923 0.693874 0.919787
15 1.40937 1.57153 1.03744
12 0.718205 0.317143 0.236051
33 1.57501 1.89359 2.03235
14 0.674137 0.0971667 1.4937
60 2.51864 2.33598 1.63402
90 2.38889 0.231621 2.2463
84 2.50309 1.19776 1.81307
30 1.45413 0.882274 2.45649
45 1.85363 2.57368 4.52223
3 2.68402 0.455959 4.94352
43 0.0991685 2.06162 3.38018
44 0.928158 2.05875 4.54805
32 1.19008 1.03731 3.76663
118 2.26544 2.246 3.26914
34 0.543884 1.16009 3.00556
35 1.26688 1.90739 3.0387
40 0.368948 0.487258 4.53151
41 1.60212 0.566483 4.83386
42 1.97578 1.53881 4.09164
96 2.56219 1.25686 2.751
39 2.25824 0.545068 3.75661
4 0.838802 1.16798 5.05345
8 1.81682 1.58092 5.2205
63 2.57458 3.91359 2.35037
54 2.24547 3.22105 1.08068
9 2.29607 3.19341 0.120301
21 1.23 4.8991 2.13947
27 1.13793 3.04136 1.84714
11 1.09245 4.74791 0.571353
52 1.20344 3.78985 0.176068
115 0.203073 3.03605 0.831933
58 0.117786 3.17185 1.92292
55 0.528956 4.0885 1.5136
56 1.66352 3.85238 1.66002
82 2.12381 4.97947 1.29248
53 1.43856 2.80664 0.663667
62 1.51566 4.12824 2.66718
36 2.05729 2.91477 2.47763
5 1.16553 4.88403 4.87219
65 0.845824 3.93647 3.71317
66 2.12064 3.71183 3.49925
74 1.74926 3.67296 4.6104
61 0.349602 4.41367 2.9886
69 1.53957 5.21542 3.32319
70 0.565887 2.9489 3.94811
71 1.31803 2.87038 3.2822
29 0.614741 5.28155 3.60224
47 0.673618 3.02016 5.34364
38 1.76866 4.48059 3.96087
64 0.392464 3.13581 2.9288
46 0.253818 3.76223 4.6703
48 2.30953 4.66338 5.0267
37 0.217089 4.95199 5.28252
88 2.38515 4.7155 3.07203
22 4.64058 1.18359 1.83384
77 3.6684 0.410195 0.75303
91 3.8019 2.02377 1.99616
10 4.4289 0.160056 1.38281
80 3.83297 2.10811 0.216944
19 4.71715 0.265341 2.54601
13 4.27441 1.19229 0.866596
83 3.75617 0.946909 2.247
93 4.96486 2.08878 2.19989
85 3.25753 1.90054 1.15753
87 4.44625 2.27946 1.21277
105 4.63064 2.27309 4.02099
97 3.67917 1.28759 3.278
101 3.81281 0.266331 5.0936
104 2.85151 1.66459 4.96816
98 2.89701 2.55266 4.05737
99 4.64078 1.434 3.16001
100 3.23529 0.874618 4.17024
31 5.21066 0.616934 3.53676
102 3.79896 1.83804 4.475
92 3.4052 2.14545 2.99414
78 3.79623 1.20087 5.19776
7 5.31936 2.55836 4.84504
79 4.35796 0.969739 4.18298
119 4.69148 2.6665 2.97987
95 4.03549 0.187833 3.30782
81 5.04765 1.66768 5.3376
103 5.27689 1.41516 4.31398
94 3.0131 0.147863 3.00604
1 4.88098 0.50352 5.33804
89 3.98919 5.02844 2.37132
76 3.04577 4.99464 0.329096
50 2.81125 4.1112 1.3712
2 5.23441 5.00143 0.983717
110 4.48625 3.39556 1.20406
111 4.78221 2.69666 0.348042
112 2.92111 3.96054 0.232757
113 3.9115 4.13642 0.996224
114 3.21408 3.02645 2.27232
57 3.07728 4.91587 2.11653
116 3.58972 3.98297 2.25374
117 4.72894 4.39877 1.92886
49 5.35565 4.03988 0.385175
86 3.34591 2.96 1.14353
109 4.38523 4.91958 0.397178
75 2.67269 4.82939 4.10109
73 4.73988 4.35003 4.92767
120 3.80559 3.02665 3.81561
28 4.87679 5.36581 4.3757
122 4.35322 2.85336 4.909
123 5.02255 3.27129 3.78875
125 4.0309 3.93494 4.2892
108 3.66124 5.16311 4.22856
67 4.60548 4.31498 3.3458
107 3.92484 3.74361 5.38905
68 5.45303 4.53872 4.04849
124 3.48152 4.35329 3.41273
106 3.24166 2.87414 5.0685
72 2.81042 3.6435 4.61667
59 2.92106 3.2652 3.26118
121 4.83088 3.60961 2.73712
ITEM: TIMESTEP
4000
ITEM: NUMBER OF ATOMS
125
ITEM: BOX BOUNDS pp pp pp
0.0000000000000000e+00 5.3860867250797098e+00
0.0000000000000000e+00 5.3860867250797098e+00
0.0000000000000000e+00 5.3860867250797098e+00
ITEM: ATOMS id x y z
30 1.42942 1.00289 2.70931
23 0.672096 0.875632 1.49914
16 1.09072 1.71418 0.533479
33 1.75755 1.64442 1.50902
12 0.647382 0.449252 0.473927
6 2.50095 0.756761 1.15796
26 0.793834 1.84273 2.12827
53 1.71183 2.42104 0.870502
24 1.68117 0.496104 1.80167
90 2.56533 0.666745 2.34657
15 1.95309 1.05895 0.273044
18 2.62028 2.44716 0.321506
25 0.0698696 1.55167 0.790225
115 0.453633 2.67831 1.11611
103 0.0702898 0.993433 3.93924
3 2.49584 0.345561 5.146
43 0.209741 1.90452 3.15759
44 1.13484 2.28046 4.2182
32 1.21937 0.973061 3.66893
7 0.383541 2.44327 5.24233
34 0.165105 0.94339 2.79391
35 1.70654 1.95845 3.35065
40 0.625768 0.22995 4.37139
41 1.4616 0.428611 4.88801
47 1.55889 2.48013 5.16798
69 0.863082 0.200119 3.10595
39 2.21276 1.10776 3.82209
4 0.590661 1.52313 4.81205
8 1.6039 1.40031 4.71561
104 2.59015 2.02839 4.71019
70 0.0904645 2.37971 4.0564
36 2.31271 3.15271 2.2592
54 2.46959 3.02305 1.11984
51 1.41603 5.15595 0.289564
21 1.30619 4.661 2.24292
27 1.34244 2.84363 1.76331
11 1.17929 4.192 0.845659
52 1.11105 3.19891 0.446164
58 0.372123 2.92569 2.1006
62 1.06926 3.56001 2.4835
55 0.54995 3.99252 1.58315
56 1.757 3.91153 1.64989
82 2.15354 4.96083 1.5681
48 2.2706 3.97859 0.382273
20 0.329284 5.02595 2.1789
14 0.856807 5.23191 1.30246
49 0.0957253 3.9021 0.624402
5 1.44284 4.17788 5.13082
65 0.899766 3.8014 3.71332
66 1.82372 4.27712 3.40313
74 0.772812 3.2372 4.57361
45 1.99686 3.00594 4.19187
72 2.27946 4.62559 4.88586
88 1.95794 5.16352 2.95442
71 0.823235 2.85573 3.168
29 0.575477 4.76745 3.57388
68 0.440573 4.32388 4.48755
38 1.6661 5.29782 3.965
9 2.49436 3.42382 4.94926
37 0.302403 5.10022 5.19312
118 1.76382 3.07793 3.12786
61 0.118314 4.02114 2.96591
22 4.55213 1.31028 1.40553
77 3.30215 0.395401 0.381202
91 3.82048 1.84272 2.26792
84 2.74246 1.6778 1.74737
80 4.26567 1.82407 0.606569
19 5.09409 0.356751 1.98678
13 4.238 0.893439 0.382946
83 3.93917 0.70642 2.53319
93 4.93969 2.16632 2.21584
85 3.55658 1.01356 1.28319
87 4.2044 2.47911 1.53996
78 3.17035 1.44202 0.204982
60 3.40065 2.14022 1.05915
17 5.08972 0.467602 0.946868
105 4.56063 1.88446 4.18079
97 3.55181 1.61626 3.84207
96 2.9764 1.49372 2.81406
1 5.11878 0.669276 5.16147
81 4.9821 1.90036 5.18363
99 4.55896 1.49492 3.04255
100 3.10805 1.07525 4.52153
31 4.79171 0.356343 3.31188
102 3.82347 2.02156 4.9411
42 2.73413 2.08487 3.68863
28 4.7191 0.0997341 4.45001
94 2.94597 0.520777 3.39173
79 4.20739 1.12106 4.73007
95 3.95529 0.649304 3.79567
10 4.24917 5.34543 1.31502
76 2.686 4.90163 0.444305
109 4.21628 5.03079 0.0977322
2 5.08901 4.79987 1.12104
110 4.71527 3.51881 1.44092
111 4.85394 2.81472 0.672183
50 2.86036 4.1977 1.26174
113 4.01873 4.41172 1.05093
114 3.25374 3.39377 1.77856
57 3.22497 5.25111 1.82197
116 3.9574 3.9955 2.19732
117 4.75348 4.69793 2.24308
119 4.37697 3.03317 2.41299
86 3.5363 3.19938 0.804806
63 2.73094 4.37918 2.29132
107 4.38084 3.75166 0.386019
75 2.79767 5.31289 4.20163
73 4.45826 4.31537 4.61806
120 4.29048 2.86097 3.78825
59 2.75594 3.84546 3.21628
122 4.60933 2.74398 4.75308
123 5.07396 3.70862 3.99044
125 3.58652 3.774 3.93481
108 3.82071 4.85256 4.01129
67 4.8735 4.80474 3.60107
98 3.3081 2.82581 3.93731
121 4.26873 3.9842 3.17678
124 3.03544 4.85059 3.29057
106 3.40576 2.88847 5.06752
64 5.10828 2.94979 3.1953
46 5.24867 3.48451 5.04244
101 3.34646 5.03255 5.02087
92 3.07334 2.8474 2.86115
89 4.00257 5.10878 2.97071
112 3.35591 3.99379 5.2546
ITEM: TIMESTEP
5000
ITEM: NUMBER OF ATOMS
125
ITEM: BOX BOUNDS pp pp pp
0.0000000000000000e+00 5.3860867250797098e+00
0.0000000000000000e+00 5.3860867250797098e+00
0.0000000000000000e+00 5.3860867250797098e+00
ITEM: ATOMS id x y z
30 2.4679 1.11239 2.92442
23 0.455697 0.171667 1.47837
16 1.53977 1.1581 0.583597
33 2.06585 1.47757 2.03816
12 1.25155 0.128561 0.7457
6 2.51004 0.673096 0.761707
26 0.97095 1.37435 1.36778
53 1.76133 2.3739 0.799456
24 1.66062 0.609639 1.6395
25 0.262367 1.34066 0.66121
15 2.47905 1.60721 0.994544
7 0.716599 2.3474 0.249114
34 0.351079 1.71192 3.1489
70 0.349776 2.47523 4.4162
3 2.11491 0.0824702 5.27396
8 1.85642 1.04694 4.81169
44 1.10815 1.73607 4.1122
32 0.586475 0.761052 3.72977
75 1.92143 0.262433 4.14416
38 1.46831 0.362747 3.10592
35 1.46005 1.4561 3.11665
40 -0.296309 -0.266 3.87026
41 1.04931 0.22417 4.64896
47 1.66276 1.92503 5.26477
69 0.874969 0.919043 2.44889
39 2.24407 1.61578 3.84227
4 0.758339 1.41507 5.1084
42 2.28754 2.40547 2.71242
88 2.48359 0.0795713 2.50198
71 0.997816 2.53387 3.37572
49 0.622301 3.82944 0.582468
54 2.98677 3.08209 1.27331
51 0.653109 4.83913 0.0285678
21 1.50449 5.22119 2.29514
27 1.24064 2.1878 2.36301
11 1.8619 4.54204 0.414045
52 1.33636 3.19049 0.186045
58 0.510399 3.23121 2.54635
62 1.06437 4.22417 2.53723
55 1.11988 3.52804 1.79756
56 2.02448 2.95525 1.69805
82 2.24832 5.05905 1.47407
48 2.47169 3.72167 0.524003
20 0.0852573 4.6853 2.35376
14 0.869184 4.57429 1.52866
76 2.86165 4.89397 0.598366
2 -0.211721 4.99836 0.807408
63 2.1115 4.27217 2.38654
115 0.76097 2.51622 1.46298
5 1.3104 3.94651 4.61593
65 1.03977 3.66016 3.57901
66 1.53819 4.69268 3.58516
74 1.22143 2.90003 4.6044
45 1.95378 2.71876 3.86885
72 1.93412 4.6652 4.63069
46 0.112948 3.78984 4.94359
59 2.58704 3.53465 3.22383
29 0.639136 5.14988 3.11185
68 0.638085 4.59904 4.1258
118 1.64596 3.2576 2.76721
9 2.19856 3.30347 4.92697
37 -0.311545 4.95209 4.95604
22 4.65777 1.55012 1.43421
77 3.13236 0.251859 -0.0498804
91 4.08033 2.0285 2.35662
84 3.05259 1.92033 2.03289
80 4.35023 2.12315 0.479521
19 5.35477 0.470603 2.4553
13 4.58374 0.99888 0.544519
83 4.26251 0.86555 2.1383
93 5.23284 2.34517 2.18078
85 3.71556 1.44738 1.00288
18 2.75111 2.45281 0.418576
78 3.07522 1.43208 0.0971816
60 3.78708 2.36859 1.35699
17 4.83506 0.345818 1.4056
90 3.04832 0.792183 1.78133
10 3.45519 -0.162723 1.55116
1 5.57223 0.585471 -0.1314
105 4.46123 1.74954 4.53689
97 3.17763 2.17683 3.60993
96 3.59215 1.23962 2.9099
92 3.39725 3.0612 3.09804
81 5.20977 2.0586 5.2625
99 4.53806 1.65168 3.16974
100 2.83592 1.01007 4.49524
31 4.70307 0.563757 3.31719
102 3.48845 2.36177 4.91025
95 3.80782 1.04745 3.8667
104 2.55438 2.08636 4.69412
94 2.7624 0.375501 3.51613
79 3.85341 0.978541 5.02676
103 4.8796 0.674143 4.443
43 5.4638 1.5226 4.2602
64 5.18047 2.59208 3.12896
36 2.71867 3.41759 2.29134
107 4.74565 4.0243 0.61631
109 3.9435 5.48334 0.710739
86 4.02887 3.14248 0.650691
110 5.33396 4.04018 1.61067
111 5.30242 3.12895 0.298022
50 2.70035 4.14911 1.34921
113 3.74661 4.33115 0.772077
114 3.79532 3.63994 1.64412
57 3.05783 4.52995 2.27069
116 3.76825 3.93575 2.75979
117 4.25161 4.47949 1.88687
119 4.32071 2.93747 2.52817
87 4.68758 2.90777 1.40304
112 3.4703 4.66488 -0.177071
89 3.60955 5.57857 2.62223
61 5.09698 3.74728 2.78369
28 3.90762 5.41919 4.45689
73 4.59275 3.98921 4.42639
120 4.11583 2.50558 3.74247
101 2.87762 5.01923 4.50391
122 4.55963 2.84764 4.92695
123 5.36531 3.31559 3.82457
125 2.55229 4.0915 4.09636
108 3.48088 4.85295 3.60766
67 4.50419 4.47008 3.31406
98 2.93988 3.15875 4.2975
121 3.71305 3.62627 3.91315
124 2.49172 4.68542 3.2608
106 3.35628 3.62289 5.18631
ITEM: TIMESTEP
6000
ITEM: NUMBER OF ATOMS
125
ITEM: BOX BOUNDS pp pp pp
0.0000000000000000e+00 5.3860867250797098e+00
0.0000000000000000e+00 5.3860867250797098e+00
0.0000000000000000e+00 5.3860867250797098e+00
ITEM: ATOMS id x y z
27 0.837035 2.1513 2.31936
23 0.213481 0.651266 1.37237
16 1.32966 0.813716 1.09183
33 2.16273 1.20972 2.13575
78 2.72599 1.30878 0.493507
6 2.48203 0.5724 1.08744
26 0.409966 1.72972 1.32746
53 1.41688 1.99707 1.50473
24 1.18592 -0.0683404 1.64711
25 0.331039 1.20027 0.384117
18 2.51795 2.30063 0.822142
7 0.636305 2.79891 0.527319
69 0.889972 0.682624 2.22346
3 2.0188 0.1329 -0.0227699
1 0.0869315 0.346132 -0.0228524
70 0.196166 1.9604 3.94693
29 0.261712 0.271987 3.34346
8 2.06313 0.97815 4.76449
44 1.55046 1.98152 4.14052
32 1.28704 0.995072 3.97806
75 2.07484 0.178537 4.14161
38 2.03261 0.489066 2.97286
35 1.63598 1.62881 3.12285
71 1.29178 2.62262 3.2486
41 1.1064 0.758609 4.92998
47 1.59366 1.9312 5.4455
43 0.246789 0.958048 4.25038
39 2.41986 1.05672 3.82183
4 0.712806 1.67277 4.9341
42 2.41863 2.37334 2.32972
40 0.0278653 -0.0984363 4.45827
34 0.555719 1.32146 3.0259
45 2.30274 2.81313 3.66629
49 0.145097 3.82954 0.754152
14 0.601161 4.70856 1.20739
51 0.277194 4.65876 -0.0511872
21 0.976325 5.11436 2.7234
63 1.66749 4.18689 1.82275
11 1.41608 4.46517 0.719555
52 1.77973 3.03098 0.531001
58 0.537492 3.34488 2.23786
115 1.12332 3.54549 1.31391
55 2.20446 3.30928 1.42963
56 1.54147 2.8892 2.10701
82 2.20696 4.99475 1.09336
48 2.33426 3.96154 0.467114
76 2.98901 5.14158 0.327259
12 1.03971 5.45744 0.441485
88 2.46567 5.54075 2.09767
5 1.00607 3.56161 5.29229
65 1.59173 3.56189 3.78386
66 1.02802 5.23126 3.85577
74 0.834961 2.7895 4.3575
123 0.0903398 3.21938 3.64327
72 1.13078 4.86717 4.81864
124 1.9903 4.73653 3.17958
59 2.65662 3.86871 3.65133
101 2.83669 4.83567 4.12434
68 0.623645 3.9602 4.27219
118 1.86284 3.70637 2.77043
9 1.91318 2.81163 4.8019
125 1.90025 4.03938 4.83605
62 0.840903 3.98924 2.97303
22 5.28351 2.07826 0.490414
89 3.60411 0.0572212 2.49976
91 4.06539 1.74313 2.01655
84 3.37708 2.98968 1.86413
60 4.38356 2.53977 1.31976
19 4.99462 1.07263 2.19205
13 4.70624 0.942099 0.381932
83 4.73084 1.45607 1.25533
93 5.09578 2.10323 2.01494
85 3.67407 1.71156 0.834122
15 2.87628 1.7994 1.6368
90 3.51058 0.811157 1.69711
102 3.32636 2.25807 -0.0399407
30 2.99578 1.00684 2.67235
77 3.52521 0.553529 0.752659
105 4.50095 1.88248 4.31508
97 2.75033 1.9363 3.3307
96 4.23022 1.13496 2.91966
103 4.65243 0.712763 4.58135
81 5.42172 2.41333 4.87467
99 5.03611 1.05748 3.44092
100 3.04357 0.690458 4.8884
31 4.46171 -0.131412 3.64446
98 3.40077 2.87137 4.25387
95 3.51608 1.30857 3.8467
64 5.2367 2.18753 2.98748
94 3.20619 0.378689 3.51614
79 3.82184 1.33391 4.98462
104 2.53862 1.94972 4.64635
80 4.34166 2.15434 5.42387
36 2.78386 3.54806 2.42127
107 4.43787 3.76759 1.1556
2 4.94151 4.62187 0.831892
86 3.91356 3.45274 0.105248
110 5.27338 4.03297 1.95308
111 4.83736 3.04646 0.30114
10 3.4035 5.19112 1.49396
113 3.86363 4.56355 0.72401
114 3.91951 4.13032 2.02337
57 2.99957 4.55544 2.30101
54 3.15363 3.07163 0.820968
117 4.4484 4.84877 2.58989
119 4.43274 2.90314 2.32899
87 5.5173 2.81813 1.42767
50 3.12439 4.0857 1.32863
20 5.34158 5.33556 2.29853
109 4.52677 5.36903 -0.0216039
17 4.72557 5.56298 1.10525
37 4.19988 4.2319 4.89669
73 4.43862 3.76518 4.04572
121 3.45073 3.90769 4.21667
112 3.1185 4.35561 5.11484
122 4.40946 2.89501 4.605
116 3.83362 3.85685 3.21095
106 2.9157 3.31715 5.20903
108 3.60042 4.90567 3.35551
67 5.48979 4.60501 3.7219
46 5.13641 3.76979 4.96879
92 3.39187 2.83343 2.9672
61 4.7748 3.71058 2.9044
28 3.72645 5.36265 4.43677
120 4.25009 2.82101 3.4718
ITEM: TIMESTEP
7000
ITEM: NUMBER OF ATOMS
125
ITEM: BOX BOUNDS pp pp pp
0.0000000000000000e+00 5.3860867250797098e+00
0.0000000000000000e+00 5.3860867250797098e+00
0.0000000000000000e+00 5.3860867250797098e+00
ITEM: ATOMS id x y z
27 1.07495 2.03144 2.25755
23 0.453649 0.474636 1.34105
16 1.18784 1.28851 1.29959
33 2.1701 1.25201 2.03957
12 1.24919 0.195244 0.644662
6 2.29652 0.537436 1.10296
26 1.10978 2.67259 1.22485
53 2.05963 1.98509 1.26041
88 2.12902 0.360819 2.54377
25 0.46925 1.33079 0.412071
42 2.01221 2.42107 2.11653
7 0.841763 2.62346 0.253234
69 0.76318 1.10435 2.34587
47 1.93561 1.54267 0.197663
93 0.164502 1.7721 1.69035
24 1.55461 0.0561239 1.78774
52 1.95124 2.5583 0.332074
1 0.0144551 0.419918 0.306696
58 0.155342 2.46914 2.40643
70 0.364767 1.7916 4.85656
104 2.59224 1.69103 4.84116
8 2.00297 0.728217 4.87381
44 1.39117 1.90003 3.80368
32 1.1052 0.817342 4.29985
97 2.59799 2.20554 3.04305
38 1.22642 0.0882646 3.01004
35 1.64272 1.24878 3.07548
34 0.357508 1.76017 3.54253
41 0.767111 0.0680272 5.04542
4 1.35278 2.28971 4.72348
43 0.0431806 0.84187 4.46796
39 2.49734 0.884482 3.85293
49 0.685975 3.68604 0.918175
14 0.750786 4.87731 1.34162
51 0.344011 4.70484 0.271809
57 2.60782 4.57574 2.28153
63 2.00409 3.42887 2.08786
11 1.86058 4.51558 1.2439
110 0.0512813 4.12603 2.0011
87 0.00700374 2.85249 1.43506
115 1.73865 3.43597 0.851719
55 2.50006 2.9007 1.27958
56 0.84056 3.31698 1.90704
20 0.45536 5.29214 2.24911
48 2.07714 4.26433 0.201801
3 2.14653 5.27524 0.119467
5 0.805178 3.4334 4.92012
65 1.2734 3.8466 4.11642
66 1.06634 5.0439 4.07079
74 0.673754 2.81572 4.14354
62 0.221966 3.39375 2.95953
72 1.19099 4.5146 5.03226
124 1.655 4.60465 3.32803
106 2.48903 3.33964 5.29471
125 2.4738 4.11878 4.35287
68 0.381877 4.21237 4.32415
118 1.28092 3.58723 2.81512
9 1.96618 3.07084 4.46948
75 2.1119 5.27051 4.17244
71 1.05513 2.67386 3.09379
45 2.1029 3.01478 3.45579
21 0.681792 4.42598 2.90918
81 0.0113509 2.72757 4.95579
77 4.00662 0.374937 1.14071
17 4.91966 0.0407273 1.58849
91 4.38534 1.52522 1.77351
18 2.97307 2.01645 0.433636
60 4.50343 2.5919 0.95445
19 5.13238 0.738029 2.54562
10 2.96312 0.261737 1.97129
83 5.03964 1.06141 1.02702
76 3.39525 0.119277 0.273337
85 4.01203 1.60274 0.704256
15 2.94258 2.01666 1.82084
90 3.33836 1.14151 1.54186
109 4.17428 0.773117 0.0366891
78 3.10261 1.04965 0.186805
22 5.2678 2.11463 0.692507
96 4.02125 0.49042 2.17889
30 3.29642 1.20549 2.63323
92 3.84713 2.18794 2.47399
105 4.89319 1.98619 4.17178
80 4.32732 2.59683 5.08323
29 5.36929 0.203336 3.46598
103 4.32819 0.787831 4.40046
102 3.16282 2.53208 4.73696
99 4.46772 1.21841 3.30738
100 3.09743 0.444863 4.62693
94 3.51682 0.795886 3.64894
79 3.75169 1.6688 4.98162
95 3.25859 1.95362 3.89885
64 4.74304 2.35421 3.07722
13 4.98736 1.46918 5.33188
36 2.96103 2.89208 2.40344
107 4.50781 3.69068 1.52328
2 5.09291 4.36067 1.08454
84 3.6582 2.95848 1.46857
50 2.78275 3.89269 1.47788
111 5.24173 3.26417 0.432673
82 2.71958 5.01794 0.997599
113 3.73971 4.17319 0.926072
114 3.98015 4.87797 2.01088
119 4.60057 2.89954 2.24024
54 3.23406 2.9776 0.334575
37 4.53856 5.22255 0.603385
116 3.63085 3.85322 2.20767
86 4.16399 3.59464 0.194981
89 2.83249 5.2012 3.26256
73 4.08405 4.12502 4.04479
121 3.36652 3.67359 4.9428
112 2.8892 4.65886 5.12805
122 4.04341 2.92745 4.14812
40 5.06248 5.21147 4.74705
59 2.76732 4.03008 3.19565
108 3.75781 4.52053 3.01875
67 4.89259 4.3643 3.61669
46 4.93913 3.83367 4.98063
101 3.32593 4.83015 4.02234
61 4.47253 3.65849 2.88808
28 3.95445 5.17743 4.91637
120 3.83588 3.03356 3.2013
123 5.05203 3.26828 3.79538
31 4.41514 5.36961 3.75605
98 3.04909 3.31327 3.97518
117 4.68931 4.98476 2.69458
ITEM: TIMESTEP
8000
ITEM: NUMBER OF ATOMS
125
ITEM: BOX BOUNDS pp pp pp
0.0000000000000000e+00 5.3860867250797098e+00
0.0000000000000000e+00 5.3860867250797098e+00
0.0000000000000000e+00 5.3860867250797098e+00
ITEM: ATOMS id x y z
27 0.954536 2.20064 1.45224
23 0.542995 0.405085 1.13945
16 1.31232 1.36472 0.884106
33 2.72837 0.748776 2.38479
12 1.39409 0.410425 0.625497
6 2.52136 0.515 1.08753
78 2.20938 1.06989 0.296377
53 2.14654 1.37256 1.52162
58 0.118255 1.85846 2.44848
25 0.388303 1.3526 0.291451
42 1.8593 1.30093 2.52408
7 0.838027 2.24964 0.357604
69 0.857966 1.20896 1.91362
87 -0.0225663 2.73791 1.81596
93 -0.227738 1.20107 1.29589
24 1.68831 0.492142 1.90556
52 1.76388 2.28211 0.844938
70 0.612448 1.8486 4.53613
104 2.54323 1.82429 4.40947
8 2.22237 0.396071 4.54893
44 1.64997 1.97777 3.78746
32 1.22999 1.02146 3.89621
39 2.17726 0.589734 3.28361
4 1.66571 2.42341 4.75093
35 0.895011 1.37668 3.02213
34 0.12695 1.36694 3.68832
41 0.779445 0.568349 4.97108
74 0.344597 2.27134 3.35834
71 1.15981 2.3269 2.56296
45 2.03202 2.83596 3.30177
47 1.49978 1.24405 4.93841
49 0.872708 4.08844 1.00372
14 0.761273 4.93443 0.458389
51 0.0947114 4.13389 0.274939
3 2.31845 5.29665 0.12691