
### SPECIFY THE NUMBER OF PRODUCTION STEPS ###
variable Nprod equal 30000

### ASSIGN ATOMIC VELOCITIES ###
velocity all create ${T} 12345 dist gaussian rot yes mom yes
velocity all create 1.5 12345 dist gaussian rot yes mom yes

### SPECIFY ENSEMBLE ###
timestep ${timestep}
timestep 0.001
fix nve all nve

### THERMODYNAMIC OUTPUT CONTROL ###
thermo_style custom time etotal temp press
thermo 10

### RECORD TRAJECTORY ###
dump traj all custom 1000 traj.dump id x y z

### SPECIFY TIMESTEP ###

### RUN SIMULATION TO MELT CRYSTAL ###
run 10000
Last active /omp style is pair_style lj/cut/omp
Neighbor list info ...
  update every 1 steps, delay 10 steps, check yes
  max neighbors/atom: 2000, page size: 100000
  master list distance cutoff = 4.5
  ghost atom cutoff = 4.5
  binsize = 2.25, bins = 3 3 3
  1 neighbor lists, perpetual/occasional/extra = 1 0 0
  (1) pair lj/cut/omp, perpetual
      attributes: half, newton on, omp
      pair build: half/bin/atomonly/newton/omp
      stencil: half/bin/3d/newton
      bin: standard
Per MPI rank memory allocation (min/avg/max) = 10.63 | 10.63 | 10.63 Mbytes
Time TotEng Temp Press 
           0   -3.0327711          1.5   0.89516323 
        0.01   -3.0327767    1.4651919    1.0889777 
        0.02   -3.0322577    1.3590233    1.6724772 
        0.03   -3.0261046    1.1855361    2.6146636 
        0.04   -3.0166405   0.97474002    3.7432671 
        0.05   -3.0113456   0.79659543    4.6958808 
        0.06   -3.0101721   0.72000906     5.137169 
        0.07   -3.0093121   0.74588903    5.0603772 
        0.08   -3.0077886    0.8211691    4.7150172 
        0.09   -3.0072819   0.89678263    4.3398222 
         0.1   -3.0059698    0.9527566    4.0470411 
        0.11   -3.0062205   0.99236668    3.8295215 
        0.12   -3.0051679    1.0253175    3.6506802 
        0.13   -3.0041171    1.0598351    3.4685834 
        0.14   -3.0054208    1.1012796     3.250748 
        0.15   -3.0052888    1.1510262    2.9925254 
        0.16    -3.002941    1.2081666    2.6965935 
        0.17    -3.002159    1.2712657    2.3625998 
        0.18   -3.0017701    1.3380669    2.0043619 
        0.19   -3.0016509    1.4032993    1.6501762 
         0.2   -3.0012712    1.4582703    1.3465753 
        0.21   -3.0017998    1.4940243    1.1390965 
        0.22   -3.0012803    1.5053161    1.0604004 
        0.23    -2.998925    1.4930853    1.1106118 
        0.24   -2.9987894    1.4646584     1.250096 
        0.25   -2.9999652    1.4287574    1.4383822 
        0.26   -3.0003528    1.3913018    1.6475597 
        0.27    -3.001268    1.3571564    1.8483278 
        0.28   -3.0014016    1.3285053    2.0274199 
        0.29   -3.0013991    1.3043405     2.182892 
         0.3   -3.0025678     1.285705    2.3033996 
        0.31   -3.0013865    1.2802797    2.3574743 
        0.32   -3.0000922    1.2951332    2.3113977 
        0.33   -3.0027252    1.3195553    2.2116736 
        0.34   -3.0029893    1.3331283    2.1659698 
        0.35   -3.0034969    1.3340044    2.1843788 
        0.36   -3.0042877     1.332062    2.2268715 
        0.37   -3.0042912    1.3192368    2.3300331 
        0.38   -3.0044081    1.2935363    2.4976483 
        0.39   -3.0046629    1.2686066    2.6632952 
         0.4   -3.0033574    1.2549156    2.7767443 
        0.41   -3.0031012    1.2559118     2.815438 
        0.42   -3.0041496    1.2678467     2.796775 
        0.43   -3.0040212    1.2840662    2.7575184 
        0.44   -3.0020672    1.2994759    2.7235198 
        0.45    -3.002203    1.3080683    2.7147417 
        0.46   -3.0041539     1.306906    2.7422499 
        0.47   -3.0041503    1.2997685    2.7920434 
        0.48   -3.0050649    1.2907124    2.8381545 
        0.49   -3.0060989    1.2833177    2.8635356 
         0.5   -3.0054446    1.2882474    2.8245008 
        0.51   -3.0044229     1.307087    2.7165321 
        0.52   -3.0048235    1.3207836    2.6273952 
        0.53   -3.0031245    1.3183249    2.6175516 
        0.54   -3.0031204    1.3017098     2.675066 
        0.55    -3.002461    1.2765654    2.7788554 
        0.56   -3.0021906    1.2513101    2.8889247 
        0.57   -3.0027246    1.2329319    2.9721607 
        0.58   -3.0041652     1.215763    3.0494454 
        0.59   -3.0045412      1.19953    3.1187483 
         0.6   -3.0054432     1.199604    3.1039993 
        0.61   -3.0063674    1.2246571    2.9668185 
        0.62    -3.005871    1.2626546    2.7682452 
        0.63   -3.0053577    1.2904581    2.6157649 
        0.64   -3.0048251    1.2993328    2.5518443 
        0.65   -3.0056014    1.2975224    2.5351604 
        0.66   -3.0048101    1.2954723    2.5170426 
        0.67   -3.0055894    1.3041062    2.4399742 
        0.68    -3.005746    1.3262188    2.3002403 
        0.69   -3.0055032    1.3395582     2.207024 
         0.7   -3.0045719     1.328361    2.2400763 
        0.71   -3.0045576    1.3054939    2.3424475 
        0.72   -3.0035011    1.2870125    2.4419518 
        0.73    -3.002858    1.2833408    2.4857064 
        0.74   -3.0031451    1.2843898    2.5153656 
        0.75   -3.0023536    1.2702073    2.6193131 
        0.76    -3.001154    1.2477265    2.7602762 
        0.77   -3.0020626    1.2388861    2.8289925 
        0.78     -3.00207    1.2499654    2.7956291 
        0.79   -3.0023333    1.2744348    2.6851482 
         0.8   -3.0027319    1.3068786    2.5249921 
        0.81   -3.0024833    1.3391091    2.3594732 
        0.82   -3.0035387     1.358779    2.2484046 
        0.83   -3.0019753    1.3563907      2.24624 
        0.84   -3.0012903     1.336783    2.3264258 
        0.85   -3.0001099    1.3307288    2.3536232 
        0.86   -3.0009193    1.3436682    2.3002928 
        0.87   -2.9992269    1.3508336    2.2863728 
        0.88    -2.999347    1.3437844     2.345306 
        0.89   -2.9989464    1.3295415    2.4480994 
         0.9   -2.9971228    1.3141585    2.5645138 
        0.91   -2.9958275    1.2948465    2.6987161 
        0.92   -2.9955646    1.2691983    2.8564154 
        0.93   -2.9946481    1.2436102     3.008072 
        0.94   -2.9947664    1.2264942    3.1083587 
        0.95   -2.9944925    1.2368755    3.0718236 
        0.96   -2.9941429    1.2795199     2.879573 
        0.97   -2.9936266     1.315323    2.7137804 
        0.98   -2.9949198    1.3274088    2.6578819 
        0.99    -2.996089    1.3221082    2.6917479 
           1   -2.9955552    1.3044446    2.7928561 
        1.01   -2.9942308    1.2868823    2.8994288 
        1.02     -2.99411    1.2875715      2.92558 
        1.03   -2.9946662    1.2979565    2.9118666 
        1.04   -2.9952038    1.2878516    2.9964318 
        1.05   -2.9964873    1.2433266     3.237596 
        1.06   -2.9965837    1.1846463    3.5377779 
        1.07    -2.996047    1.1445217    3.7365111 
        1.08   -2.9970822    1.1397594    3.7449539 
        1.09   -2.9972209    1.1768588    3.5389181 
         1.1   -2.9963333    1.2448933    3.1788528 
        1.11   -2.9953141    1.3142588     2.812506 
        1.12   -2.9966256    1.3573815     2.574787 
        1.13   -2.9977934    1.3643209    2.5222513 
        1.14    -2.997259    1.3415699    2.6273521 
        1.15   -2.9977687    1.3037555    2.8125406 
        1.16   -2.9971066    1.2660249    3.0037333 
        1.17   -2.9976237    1.2391822    3.1410019 
        1.18   -2.9971081    1.2272141    3.2063377 
        1.19   -2.9960761    1.2252286    3.2205749 
         1.2   -2.9975188    1.2236291    3.2230859 
        1.21   -2.9977746    1.2176088    3.2415294 
        1.22   -2.9968492    1.2140803    3.2449579 
        1.23   -2.9969818    1.2230058     3.186697 
        1.24   -2.9954222    1.2430856     3.080664 
        1.25   -2.9960792    1.2654453    2.9660522 
        1.26   -2.9973908    1.2827751    2.8840602 
        1.27    -2.995837    1.2864869    2.8815413 
        1.28   -2.9966156    1.2672948    2.9871433 
        1.29    -2.996583    1.2344349    3.1523122 
         1.3   -2.9968245    1.2198705    3.2180356 
        1.31   -2.9967075    1.2425444    3.0927216 
        1.32   -2.9968592    1.2884969    2.8420347 
        1.33   -2.9951795    1.3318737    2.5990528 
        1.34    -2.994665    1.3524725     2.464185 
        1.35   -2.9950404     1.344549    2.4711875 
        1.36   -2.9942316    1.3272218    2.5384833 
        1.37   -2.9955548     1.323377    2.5563512 
        1.38   -2.9951759    1.3223466    2.5741937 
        1.39   -2.9952918    1.3121301    2.6381749 
         1.4   -2.9959319    1.3038555    2.6948905 
        1.41   -2.9958083    1.3084175    2.6950795 
        1.42    -2.995954    1.3179392    2.6730715 
        1.43   -2.9964738    1.3190314    2.6906465 
        1.44   -2.9965977     1.310987    2.7522488 
        1.45   -2.9965995    1.2987067    2.8313003 
        1.46   -2.9972412    1.2839147    2.9111365 
        1.47   -2.9989232     1.278398      2.93261 
        1.48    -2.997757     1.293688    2.8512754 
        1.49   -2.9964668    1.3203882    2.7119722 
         1.5   -2.9949079     1.339712    2.6092369 
        1.51   -2.9946428    1.3384609    2.6065155 
        1.52   -2.9942355    1.3181338    2.6993303 
        1.53   -2.9951328    1.2942882     2.810742 
        1.54   -2.9950103    1.2834343    2.8657257 
        1.55   -2.9954281    1.2812052     2.879801 
        1.56   -2.9953085    1.2663194    2.9499385 
        1.57   -2.9952685    1.2374818    3.0796387 
        1.58   -2.9955327    1.2304812    3.1094816 
        1.59   -2.9958264    1.2447648    3.0441016 
         1.6   -2.9966087    1.2493571    3.0248777 
        1.61   -2.9972439     1.240309    3.0741663 
        1.62   -2.9977502    1.2324584    3.1239325 
        1.63   -2.9981543    1.2398905    3.1080524 
        1.64   -2.9981775    1.2543283    3.0622793 
        1.65   -2.9963435    1.2579759    3.0690802 
        1.66   -2.9976483    1.2503578      3.12539 
        1.67   -2.9968754    1.2332226     3.231738 
        1.68   -2.9968568    1.2019132    3.3991061 
        1.69   -2.9969605    1.1763756    3.5335666 
         1.7   -2.9958108    1.1796149    3.5321825 
        1.71   -2.9967515    1.1915643    3.4793392 
        1.72   -2.9960954    1.1849412    3.5054207 
        1.73   -2.9950243    1.1635435     3.592553 
        1.74   -2.9959223    1.1537055    3.6172149 
        1.75   -2.9967165    1.1717266     3.508355 
        1.76   -2.9958146    1.2109883    3.3007516 
        1.77   -2.9963521     1.257136    3.0614192 
        1.78   -2.9961024    1.2900538    2.8913851 
        1.79   -2.9964824    1.2971666    2.8474804 
         1.8   -2.9971223    1.2875115    2.8879187 
        1.81   -2.9977718    1.2760561    2.9404646 
        1.82   -2.9965969    1.2704652    2.9670968 
        1.83   -2.9975099    1.2737369    2.9435276 
        1.84   -2.9976444    1.2862683    2.8722816 
        1.85   -2.9963452    1.3012049     2.788297 
        1.86   -2.9960825    1.3109936    2.7262191 
        1.87   -2.9966065    1.3159841    2.6893861 
        1.88   -2.9953011     1.315874     2.685289 
        1.89    -2.994384    1.3124612    2.7034212 
         1.9   -2.9949189    1.3067227    2.7384693 
        1.91   -2.9954419    1.2893455    2.8325347 
        1.92   -2.9949058    1.2606426    2.9809203 
        1.93   -2.9955484     1.235823    3.1044928 
        1.94    -2.996197    1.2261812     3.146983 
        1.95   -2.9954149    1.2358581    3.0896831 
        1.96   -2.9964733    1.2604994    2.9510414 
        1.97   -2.9959609    1.2852244     2.811195 
        1.98   -2.9963475    1.2962596    2.7364854 
        1.99   -2.9973762    1.2950831    2.7271523 
           2   -2.9965913    1.2907484    2.7489972 
        2.01   -2.9959476    1.2829052    2.7989522 
        2.02   -2.9972517    1.2640784    2.9034751 
        2.03   -2.9960659    1.2364018    3.0552509 
        2.04   -2.9974966     1.210833    3.1916141 
        2.05   -2.9985438    1.1939443    3.2825321 
        2.06   -2.9982801    1.1864145    3.3223008 
        2.07   -2.9963159    1.1934255    3.2869604 
        2.08   -2.9963429    1.2188649    3.1562967 
        2.09   -2.9966143    1.2414158    3.0332343 
         2.1   -2.9980368    1.2504607    2.9707853 
        2.11   -2.9988315    1.2526383    2.9481646 
        2.12   -2.9994609    1.2409839    2.9944754 
        2.13   -2.9999717    1.2305218    3.0410214 
        2.14   -3.0003827    1.2308542    3.0429389 
        2.15   -3.0002511    1.2278733    3.0622055 
        2.16   -2.9991993    1.2227805     3.095175 
        2.17   -2.9977814    1.2203776    3.1210973 
        2.18   -2.9975281    1.2068787    3.1982471 
        2.19   -2.9976479    1.1774108    3.3465207 
         2.2   -2.9973429    1.1514536    3.4726862 
        2.21   -2.9986643    1.1655821    3.4050127 
        2.22   -2.9975263    1.2057694    3.2115334 
        2.23   -2.9974145    1.2350728    3.0577776 
        2.24   -2.9977842    1.2364877    3.0263461 
        2.25   -2.9977453    1.2360128     3.005319 
        2.26   -2.9989599    1.2639556    2.8599517 
        2.27   -2.9976599    1.2907996    2.7285844 
        2.28   -2.9962178     1.300644    2.6837136 
        2.29   -2.9959535    1.2956879    2.7156777 
         2.3   -2.9962116    1.2800682    2.8027008 
        2.31    -2.995936    1.2601817    2.9088351 
        2.32   -2.9965854    1.2540725    2.9451199 
        2.33   -2.9977901    1.2626618    2.9076426 
        2.34   -2.9992063    1.2622058    2.9034416 
        2.35   -2.9989392    1.2628183    2.8935015 
        2.36   -2.9998609    1.2684058    2.8542019 
        2.37   -3.0002389    1.2739544    2.8074115 
        2.38   -2.9995804    1.2907364     2.704381 
        2.39   -2.9994595    1.3224703    2.5298534 
         2.4   -3.0006418    1.3590089    2.3354128 
        2.41   -2.9990845    1.3896287    2.1849782 
        2.42    -3.000133    1.4053336    2.1176807 
        2.43   -3.0006493    1.4014294    2.1620004 
        2.44   -3.0003809     1.380712    2.3032134 
        2.45   -3.0018135    1.3483044    2.5070298 
        2.46   -3.0012865    1.3095026    2.7454188 
        2.47   -3.0024484    1.2713661    2.9700605 
        2.48   -3.0016505    1.2460385    3.1235849 
        2.49   -3.0000879    1.2457287    3.1464421 
         2.5   -3.0002376     1.265476     3.060008 
        2.51   -3.0009044    1.2855656    2.9613622 
        2.52    -3.000259    1.2920161    2.9235044 
        2.53   -3.0005236    1.2807701     2.964673 
        2.54   -3.0006478    1.2527543    3.0799006 
        2.55    -3.000888    1.2193634    3.2103821 
        2.56   -3.0011311    1.2067674    3.2335962 
        2.57   -3.0004975    1.2321287    3.0754271 
        2.58   -2.9990896    1.2772147    2.8253454 
        2.59   -2.9988324    1.3102407    2.6321525 
         2.6   -3.0001261    1.3221685    2.5429186 
        2.61   -2.9986828    1.3210249    2.5298858 
        2.62    -2.999986    1.3147586    2.5460905 
        2.63   -3.0016809    1.3075007    2.5734539 
        2.64   -3.0007645    1.3016604    2.6038495 
        2.65   -3.0022049    1.3006885    2.6146118 
        2.66   -3.0014386    1.3009563    2.6324752 
        2.67   -3.0017165    1.2865057    2.7260015 
        2.68   -3.0022365    1.2439681    2.9542124 
        2.69   -3.0016804    1.1827889     3.268727 
         2.7   -3.0024328    1.1383755    3.4959522 
        2.71   -3.0019133    1.1414839    3.4938247 
        2.72   -3.0015481     1.189774    3.2706292 
        2.73   -3.0001502    1.2536246    2.9711386 
        2.74   -3.0005618    1.2935882    2.7801372 
        2.75   -3.0014679    1.2877356    2.8045778 
        2.76   -3.0011694    1.2466816    2.9954701 
        2.77   -3.0013912    1.2091292    3.1649157 
        2.78   -3.0010223    1.2109308    3.1457014 
        2.79    -3.000399    1.2349377    3.0129754 
         2.8   -3.0005229    1.2516678     2.904751 
        2.81   -3.0020796     1.260503    2.8330104 
        2.82   -3.0024728    1.2699609    2.7702818 
        2.83   -3.0020886    1.2795801    2.7217198 
        2.84   -3.0014456    1.2813929    2.7249631 
        2.85   -3.0005327    1.2694799    2.8078659 
        2.86   -3.0018379    1.2440412    2.9640252 
        2.87   -3.0006641    1.2062304    3.1894514 
        2.88   -3.0010404    1.1609205    3.4443386 
        2.89   -3.0020683      1.12513    3.6403131 
         2.9   -3.0032414    1.1153312    3.6929402 
        2.91   -3.0023286    1.1354164    3.5828732 
        2.92   -3.0014235    1.1820937     3.325077 
        2.93   -3.0000021    1.2444868    2.9800608 
        2.94   -2.9989726    1.3045859    2.6408654 
        2.95   -2.9991109    1.3446368    2.3982732 
        2.96   -2.9974123    1.3540228    2.3119887 
        2.97   -2.9976561     1.336189    2.3613293 
        2.98   -2.9980253    1.3102209    2.4596843 
        2.99   -2.9968417    1.2994194    2.5011198 
           3   -2.9980343    1.3110472    2.4461515 
        3.01    -2.997404     1.326734    2.3855778 
        3.02   -2.9984496    1.3251681    2.4112086 
        3.03    -2.995689    1.3040434    2.5404313 
        3.04    -2.997236    1.2810012    2.6755699 
        3.05   -2.9986919     1.272013    2.7473775 
        3.06   -2.9998956    1.2629217    2.8176738 
        3.07   -2.9997392    1.2348644    2.9702067 
        3.08   -2.9988018     1.212389    3.0907362 
        3.09   -2.9986911    1.2173569    3.0750436 
         3.1   -3.0015586    1.2358762    2.9804833 
        3.11   -3.0032614    1.2644168    2.8362065 
        3.12   -3.0031555    1.2935144    2.6950841 
        3.13   -3.0022494    1.2993348    2.6705801 
        3.14   -3.0010571    1.2734765    2.8036369 
        3.15   -3.0002422    1.2352688    3.0035839 
        3.16   -3.0002393    1.2156755    3.1240082 
        3.17    -3.000138    1.2157606    3.1544025 
        3.18   -3.0005231     1.207684    3.2121802 
        3.19   -3.0010251    1.1912849    3.2963983 
         3.2   -3.0012735    1.1834109    3.3306429 
        3.21   -3.0012773    1.1952245     3.265081 
        3.22   -3.0033759    1.2230747    3.1158625 
        3.23   -3.0019493     1.255266    2.9506916 
        3.24   -3.0011738    1.2818122    2.8144021 
        3.25   -3.0001352    1.2940188    2.7514398 
        3.26   -2.9996083    1.2885392    2.7751985 
        3.27   -2.9998549    1.2731098    2.8462773 
        3.28   -2.9997242    1.2613238    2.9007159 
        3.29   -3.0009131     1.255934    2.9202312 
         3.3   -3.0014353    1.2474918    2.9487021 
        3.31   -2.9999844    1.2357383     2.989204 
        3.32   -2.9991981    1.2322751    2.9865757 
        3.33   -2.9989522    1.2397824    2.9311096 
        3.34   -2.9997418    1.2451327    2.8837499 
        3.35   -3.0001223    1.2398251    2.8874419 
        3.36   -2.9998412    1.2326317     2.903853 
        3.37   -3.0027064    1.2391803    2.8560256 
        3.38   -3.0029862    1.2626796    2.7391769 
        3.39    -3.003659    1.2858007    2.6289221 
         3.4   -3.0037961    1.2871869    2.6259264 
        3.41    -3.003519    1.2625339    2.7499866 
        3.42   -3.0014128    1.2296631    2.9208727 
        3.43    -3.000889    1.2083797    3.0394067 
        3.44   -2.9989332    1.2037832    3.0821025 
        3.45   -2.9998542    1.2139055    3.0482314 
        3.46   -2.9996059    1.2329882    2.9714936 
        3.47   -2.9996072    1.2494428    2.9052752 
        3.48   -2.9976404    1.2605987    2.8695346 
        3.49   -2.9967288    1.2730011    2.8328902 
         3.5   -2.9968674    1.2840491    2.8067888 
        3.51    -2.997002    1.2847385    2.8306385 
        3.52   -2.9959528      1.27283    2.9125191 
        3.53   -2.9969879    1.2546584    3.0142914 
        3.54   -2.9968497    1.2426115    3.0829273 
        3.55   -2.9979018    1.2449984    3.0773694 
        3.56   -2.9972663    1.2553649    3.0342971 
        3.57   -2.9979176    1.2593666    3.0178176 
        3.58   -2.9983057    1.2573408    3.0335365 
        3.59   -2.9990999     1.252523    3.0679666 
         3.6    -2.998707     1.238141    3.1527626 
        3.61    -2.999093    1.2165939    3.2721699 
        3.62   -2.9989475    1.1965187    3.3862997 
        3.63   -2.9976387    1.1919402    3.4315924 
        3.64   -2.9988402    1.2051405    3.3914678 
        3.65   -2.9987163    1.2133074    3.3709629 
        3.66   -2.9993475    1.2107668    3.3886712 
        3.67   -2.9984254      1.21405    3.3712412 
        3.68   -2.9986879    1.2316147    3.2755717 
        3.69   -3.0000116    1.2583026    3.1303604 
         3.7   -2.9974056    1.2762368    3.0314919 
        3.71   -2.9962244    1.2780501    3.0097504 
        3.72   -2.9972572    1.2690947    3.0403383 
        3.73    -2.995147    1.2638225    3.0637209 
        3.74   -2.9951714     1.281673    2.9845323 
        3.75   -2.9962547    1.3014711    2.9007263 
        3.76   -2.9958585    1.2851063    2.9865107 
        3.77   -2.9954314    1.2366155    3.2170481 
        3.78   -2.9959297    1.1911043    3.4225621 
        3.79   -2.9963045    1.1780694    3.4608295 
         3.8   -2.9954073    1.2122471    3.2664254 
        3.81   -2.9970035    1.2752265    2.9262409 
        3.82   -2.9964964      1.33103     2.625364 
        3.83   -2.9966302    1.3576538    2.4723782 
        3.84   -2.9957027    1.3481753    2.5055149 
        3.85   -2.9959358    1.3181953    2.6467553 
        3.86   -2.9955507    1.2949823    2.7703221 
        3.87   -2.9953167    1.2756275    2.8820305 
        3.88   -2.9966047    1.2426344    3.0525511 
        3.89   -2.9961892    1.2114456    3.2132327 
         3.9   -2.9948911    1.2041335    3.2591556 
        3.91   -2.9955535    1.2156442    3.2061258 
        3.92   -2.9965964    1.2354321    3.1077095 
        3.93   -2.9967276    1.2604385    2.9874963 
        3.94   -2.9967355    1.2859016    2.8734098 
        3.95   -2.9971388    1.2998164    2.8236263 
        3.96    -2.997793    1.2904723    2.8906973 
        3.97   -2.9985608    1.2583901    3.0655746 
        3.98   -2.9990598    1.2195701    3.2660945 
        3.99   -2.9997042    1.1966277     3.381583 
           4   -2.9990689    1.1984499    3.3735712 
        4.01   -2.9988265    1.2100189    3.3126027 
        4.02   -2.9971298    1.2148832    3.2842002 
        4.03   -2.9964838    1.2117814      3.29763 
        4.04   -2.9958423    1.1966929    3.3745189 
        4.05   -2.9968692    1.1656236    3.5268622 
        4.06   -2.9971013    1.1389139    3.6627411 
        4.07   -2.9977605    1.1411326    3.6652348 
        4.08   -2.9975135    1.1685595    3.5494577 
        4.09   -2.9970041    1.2050493    3.3878092 
         4.1   -2.9984538    1.2350023    3.2499026 
        4.11   -2.9996224    1.2454893    3.1980887 
        4.12   -2.9996043    1.2424701    3.2058827 
        4.13   -2.9996039    1.2414256    3.1989938 
        4.14    -2.998426    1.2462664     3.158186 
        4.15   -2.9971194     1.258848    3.0737184 
        4.16   -2.9970052    1.2769321    2.9581927 
        4.17   -2.9974146    1.2834218    2.8954206 
        4.18   -2.9964952    1.2625329    2.9624513 
        4.19   -2.9971207    1.2220529    3.1174704 
         4.2   -2.9967093     1.187834      3.24166 
        4.21   -2.9959174    1.1811889    3.2322662 
        4.22   -2.9971118    1.2089595    3.0564031 
        4.23   -2.9983129    1.2525214    2.8089997 
        4.24    -2.998453    1.2833621    2.6300231 
        4.25   -2.9983143    1.2890149    2.5818236 
        4.26   -2.9983005    1.2751303    2.6399096 
        4.27   -2.9988155     1.255043    2.7399478 
        4.28   -2.9999895    1.2375612     2.835838 
        4.29   -2.9994633    1.2261119     2.909045 
         4.3   -2.9999785    1.2276067     2.918329 
        4.31   -2.9992077    1.2480819    2.8375902 
        4.32   -2.9992276    1.2763226    2.7138461 
        4.33   -2.9980446    1.2953017    2.6288635 
        4.34    -2.997511    1.3072159    2.5739287 
        4.35   -2.9975146    1.3206326    2.5146936 
        4.36   -2.9979167    1.3299535    2.4789637 
        4.37   -2.9984349    1.3245495    2.5155964 
        4.38   -2.9988118    1.3067511    2.6140347 
        4.39   -2.9980187    1.2883899    2.7209189 
         4.4   -2.9980221    1.2764238    2.7998752 
        4.41   -2.9986774    1.2681985    2.8619395 
        4.42   -2.9993245      1.26196    2.9151641 
        4.43   -2.9977533    1.2639821    2.9346341 
        4.44   -2.9976431    1.2753708    2.9102742 
        4.45   -2.9980559    1.2799727    2.9168035 
        4.46   -2.9984514    1.2590079    3.0377227 
        4.47   -2.9986789    1.2162594    3.2492911 
        4.48   -2.9974864    1.1886567    3.3800514 
        4.49    -2.996987    1.1969556    3.3310539 
         4.5   -2.9979185    1.2197846    3.2025301 
        4.51   -2.9989532    1.2354242    3.1047191 
        4.52    -2.998552    1.2450326    3.0434726 
        4.53   -2.9997344    1.2529503    2.9969195 
        4.54   -2.9985603    1.2505677    3.0065834 
        4.55   -2.9984153    1.2362811    3.0699642 
        4.56   -2.9977537    1.2230621     3.128885 
        4.57   -2.9986685    1.2192526    3.1416394 
        4.58   -2.9998493    1.2234445    3.1182944 
        4.59   -3.0002535    1.2285767     3.096168 
         4.6   -3.0009119    1.2221705    3.1331992 
        4.61   -3.0012931    1.1982261    3.2591659 
        4.62   -3.0028397    1.1690248    3.4157969 
        4.63   -3.0023187    1.1541703     3.517555 
        4.64    -3.001945    1.1548277    3.5507423 
        4.65   -3.0026041    1.1577832    3.5687737 
        4.66    -3.001559    1.1572001    3.6004091 
        4.67   -3.0005152    1.1567755     3.625666 
        4.68   -3.0003885    1.1611387    3.6212047 
        4.69   -3.0009119    1.1703713    3.5838013 
         4.7   -3.0012931    1.1848073    3.5090987 
        4.71   -3.0015558     1.209237    3.3742454 
        4.72   -3.0027342    1.2388754    3.2004434 
        4.73   -3.0020839    1.2669224    3.0270473 
        4.74   -3.0009021    1.2905418    2.8698769 
        4.75   -3.0014178    1.3131882    2.7138776 
        4.76   -3.0003738    1.3382649    2.5521737 
        4.77   -3.0008983    1.3632743    2.3942317 
        4.78   -3.0014242    1.3835395      2.26858 
        4.79   -3.0011736    1.3915458    2.2150722 
         4.8    -3.001312    1.3760639    2.2832061 
        4.81   -3.0011681    1.3325989    2.4880713 
        4.82   -3.0014013     1.276891    2.7465493 
        4.83   -3.0025618    1.2383442    2.9141218 
        4.84   -3.0021797     1.234127    2.9113587 
        4.85   -3.0025847    1.2578529    2.7651129 
        4.86   -3.0015488    1.2951462    2.5529324 
        4.87   -3.0022151    1.3340588    2.3361047 
        4.88   -3.0013068    1.3609599     2.190926 
        4.89   -3.0005257    1.3679825    2.1557639 
         4.9    -2.999349    1.3529904    2.2407991 
        4.91   -2.9995982    1.3208992    2.4158025 
        4.92   -3.0001165    1.2831163    2.6243081 
        4.93   -2.9995985     1.245348    2.8350248 
        4.94   -3.0002454    1.2089654    3.0303343 
        4.95   -3.0000971    1.1842976    3.1604095 
        4.96   -2.9991861    1.1875804    3.1506894 
        4.97   -2.9988162    1.2151547    3.0196053 
        4.98   -2.9990948    1.2431748    2.8815569 
        4.99   -2.9981726    1.2526085     2.831656 
           5   -2.9984115    1.2474615    2.8500799 
        5.01   -2.9991853     1.246631    2.8504502 
        5.02   -2.9993184    1.2598458    2.7869216 
        5.03   -2.9980249    1.2844671    2.6724355 
        5.04   -2.9977746    1.3111021    2.5493125 
        5.05   -2.9979143    1.3274477    2.4793237 
        5.06   -2.9975226    1.3239707    2.5090314 
        5.07   -2.9954153    1.3031952     2.626037 
        5.08   -2.9951392    1.2849426    2.7295438 
        5.09   -2.9954085    1.2852094    2.7442943 
         5.1    -2.994771    1.2978861    2.6982952 
        5.11    -2.996604    1.3074015    2.6581443 
        5.12   -2.9962079     1.306358    2.6678016 
        5.13   -2.9973726    1.2982808    2.7066845 
        5.14   -2.9978825    1.2914765    2.7397737 
        5.15   -2.9965863    1.2940952    2.7318589 
        5.16   -2.9975114    1.2988125    2.7089825 
        5.17   -2.9973701     1.296911    2.7143278 
        5.18   -2.9987995    1.2950345    2.7126164 
        5.19   -2.9991962    1.2977233    2.6865315 
         5.2   -2.9986743    1.3025443    2.6483583 
        5.21   -2.9988105    1.3081797    2.6061852 
        5.22   -2.9987029    1.3090794      2.58983 
        5.23    -2.998412    1.2958868    2.6382397 
        5.24   -2.9977431    1.3032895    2.5973726 
        5.25   -2.9979493    1.3403391    2.4321531 
        5.26   -2.9983395    1.3425726    2.4368952 
        5.27    -2.998441    1.3017011    2.6554224 
        5.28   -2.9977726    1.2432427    2.9699738 
        5.29   -2.9973712    1.1880925    3.2726083 
         5.3    -2.997223    1.1526051    3.4765842 
        5.31   -2.9963132     1.156419    3.4882104 
        5.32   -2.9966048    1.1952591    3.3238009 
        5.33    -2.996357    1.2359669    3.1401117 
        5.34   -2.9947798    1.2598845    3.0294529 
        5.35   -2.9959517    1.2697171    2.9783219 
        5.36    -2.996207    1.2661415      2.99102 
        5.37   -2.9972377    1.2524757    3.0507074 
        5.38   -2.9969839    1.2376663    3.1214102 
        5.39   -2.9963439     1.218359    3.2152245 
         5.4   -2.9960647    1.1871343    3.3582899 
        5.41   -2.9948527    1.1636005    3.4567847 
        5.42   -2.9951226    1.1810423    3.3547935 
        5.43   -2.9950314    1.2298951    3.1029621 
        5.44   -2.9967463    1.2691892    2.8943879 
        5.45   -2.9959627    1.2742385    2.8600239 
        5.46   -2.9965951    1.2435726    3.0033925 
        5.47   -2.9964295    1.1994063    3.2219445 
        5.48   -2.9966857    1.1744847     3.358583 
        5.49   -2.9964436    1.1734172    3.3872986 
         5.5   -2.9952748    1.1810839    3.3735114 
        5.51   -2.9943594    1.1909992      3.34356 
        5.52   -2.9938296    1.2054674    3.2855573 
        5.53   -2.9935678    1.2298086    3.1759771 
        5.54   -2.9930571    1.2641764    3.0192282 
        5.55   -2.9941141    1.2978106    2.8687415 
        5.56   -2.9929474    1.3162591    2.8033561 
        5.57   -2.9922925    1.3120797    2.8546219 
        5.58   -2.9920177    1.2890889    2.9994799 
        5.59   -2.9931659     1.264154    3.1484432 
         5.6   -2.9934206    1.2634488    3.1783032 
        5.61   -2.9934518    1.2897177     3.073552 
        5.62   -2.9941212     1.314553    2.9655864 
        5.63   -2.9948986    1.3181693    2.9529109 
        5.64   -2.9950168    1.3019151    3.0363309 
        5.65   -2.9951324    1.2779223    3.1605355 
        5.66   -2.9964406    1.2609178    3.2569267 
        5.67   -2.9959422    1.2494793    3.3370643 
        5.68   -2.9963315    1.2270067    3.4699603 
        5.69   -2.9976229    1.1949345    3.6460177 
         5.7   -2.9974894    1.1686527    3.7945794 
        5.71   -2.9965851    1.1535892    3.8847268 
        5.72   -2.9967136    1.1435003    3.9372115 
        5.73   -2.9967049     1.139036    3.9476848 
        5.74   -2.9985234    1.1493143    3.8692768 
        5.75   -2.9994349    1.1830868    3.6672908 
        5.76   -2.9982833    1.2388997    3.3561497 
        5.77   -2.9996115    1.2930251    3.0442385 
        5.78   -2.9997369    1.3226984      2.84842 
        5.79   -2.9988206    1.3298078    2.7660167 
         5.8   -2.9992163    1.3201761    2.7679375 
        5.81    -2.998016    1.2973711    2.8390568 
        5.82    -2.996315    1.2845232    2.8701363 
        5.83   -2.9961964    1.2896667    2.8170869 
        5.84   -2.9964566    1.3024163    2.7253514 
        5.85   -2.9963375    1.3174508    2.6219597 
        5.86   -2.9958235    1.3217713    2.5670999 
        5.87   -2.9958172    1.3060356    2.6016914 
        5.88   -2.9957992    1.2752551    2.7010705 
        5.89   -2.9960409    1.2469711    2.7803645 
         5.9   -2.9964203     1.242839    2.7388199 
        5.91   -2.9961734    1.2726261    2.5359241 
        5.92    -2.998548     1.320905    2.2442016 
        5.93   -2.9994745    1.3619523     1.997246 
        5.94   -2.9973822     1.381346     1.872003 
        5.95   -2.9985475    1.3799025    1.8577954 
        5.96   -2.9985358    1.3675407     1.913554 
        5.97   -2.9994464    1.3561029    1.9762284 
        5.98   -2.9984074    1.3511194    2.0198772 
        5.99   -2.9986718    1.3507615    2.0453409 
           6   -2.9998717    1.3508115    2.0753843 
        6.01   -3.0002725    1.3298963    2.2104794 
        6.02   -2.9997194    1.2801275    2.4838359 
        6.03   -2.9999536    1.2300885    2.7590002 
        6.04   -3.0003577      1.20655    2.9100558 
        6.05    -2.999327    1.2029706    2.9641999 
        6.06   -2.9988001    1.2076522    2.9711775 
        6.07   -2.9994556    1.2216875    2.9277679 
        6.08   -2.9991895    1.2432016    2.8458993 
        6.09   -2.9977614    1.2740603    2.7200783 
         6.1   -2.9972597    1.3033463     2.600745 
        6.11   -2.9965992    1.3116691    2.5823314 
        6.12    -2.997766    1.3014808    2.6564367 
        6.13   -2.9980209    1.2815684    2.7882708 
        6.14   -2.9974822    1.2608312    2.9331909 
        6.15   -2.9970974    1.2517897    3.0284869 
        6.16   -2.9981551    1.2473359    3.0987608 
        6.17   -2.9998495    1.2345467    3.1996292 
        6.18   -3.0006256    1.2175491    3.3142992 
        6.19   -3.0014135    1.2059896    3.3986603 
         6.2   -3.0001135    1.1994828    3.4584892 
        6.21   -3.0003655    1.1994144    3.4826986 
        6.22   -2.9996009    1.2111352    3.4533735 
        6.23   -2.9990898    1.2173007    3.4439928 
        6.24   -2.9988043    1.2084296    3.4926151 
        6.25   -2.9983995    1.2037297    3.5090932 
        6.26   -2.9990553    1.2161668    3.4294743 
        6.27   -2.9976281    1.2410771    3.2802662 
        6.28     -2.99921    1.2661137     3.115131 
        6.29   -2.9993431    1.2763983    3.0162107 
         6.3   -3.0001152    1.2695291    2.9976375 
        6.31   -2.9991897    1.2567941    3.0151879 
        6.32   -2.9989224    1.2548443    2.9896925 
        6.33   -2.9977637    1.2682955    2.9013049 
        6.34   -2.9998589    1.2834566    2.8038561 
        6.35   -2.9998679    1.2900211    2.7547001 
        6.36   -2.9993437    1.2772929    2.8001119 
        6.37    -2.998537    1.2479584    2.9247096 
        6.38   -2.9982684    1.2248497    3.0198778 
        6.39   -2.9965657    1.2212005    3.0243692 
         6.4   -2.9968372    1.2393047    2.9234959 
        6.41   -2.9972368    1.2664469    2.7832288 
        6.42   -2.9978844    1.2900268    2.6657957 
        6.43   -2.9981411     1.310407    2.5741157 
        6.44   -2.9984051    1.3283477    2.5041432 
        6.45   -2.9989314    1.3405206    2.4683651 
        6.46   -2.9991989     1.343434    2.4799753 
        6.47   -2.9994571    1.3351928    2.5422439 
        6.48   -2.9997033    1.3201972    2.6284863 
        6.49   -2.9985137    1.3114608    2.6751234 
         6.5   -2.9983849    1.3229412    2.6115198 
        6.51   -2.9978856    1.3539473    2.4458821 
        6.52   -2.9981627    1.3852553    2.2708391 
        6.53   -2.9982893    1.4010792    2.1684364 
        6.54   -2.9984149    1.4030416    2.1386794 
        6.55   -2.9999893    1.3958366    2.1616605 
        6.56   -2.9997385    1.3746284    2.2635659 
        6.57   -3.0002576    1.3343736    2.4579367 
        6.58   -3.0003555     1.288701     2.677191 
        6.59   -3.0002374    1.2687852    2.7754394 
         6.6   -3.0006441    1.2675862     2.778598 
        6.61   -3.0012818    1.2683099    2.7628017 
        6.62   -3.0020584     1.277157    2.7044933 
        6.63   -3.0024605    1.2960406     2.600202 
        6.64   -3.0015549    1.3133906    2.5078534 
        6.65   -3.0019421    1.3209513    2.4646774 
        6.66   -3.0024591    1.3225746    2.4574301 
        6.67   -3.0033767    1.3240276     2.459775 
        6.68   -3.0035127    1.3241592    2.4772992 
        6.69   -3.0031242    1.3180645    2.5291042 
         6.7   -3.0027251    1.3025564    2.6238641 
        6.71   -3.0036247    1.2848597    2.7212947 
        6.72   -3.0025783    1.2775764    2.7668392 
        6.73   -3.0018048    1.2811525    2.7562594 
        6.74   -3.0024637    1.2855178    2.7375434 
        6.75   -3.0018066    1.2841077    2.7484087 
        6.76   -3.0044129    1.2792856    2.7714801 
        6.77    -3.003373    1.2760929    2.7927485 
        6.78    -3.003377    1.2750145    2.7996675 
        6.79   -3.0027233    1.2742041    2.8020283 
         6.8   -3.0029794    1.2749343    2.7924823 
        6.81    -3.002721    1.2800261    2.7635569 
        6.82   -3.0027308    1.2842027    2.7408281 
        6.83   -3.0016909    1.2775281    2.7729712 
        6.84   -3.0005133    1.2551376    2.8801402 
        6.85   -3.0003668    1.2222366    3.0337669 
        6.86    -2.999835    1.1938473    3.1634675 
        6.87   -2.9981342    1.1843533    3.2010659 
        6.88   -2.9990554    1.1975768    3.1215335 
        6.89   -2.9984167    1.2246835    2.9735763 
         6.9   -2.9985515     1.250851    2.8248638 
        6.91   -2.9986804    1.2683137    2.7161867 
        6.92    -2.999332    1.2765722    2.6516406 
        6.93   -2.9997163    1.2782823    2.6205727 
        6.94   -2.9993162    1.2826061    2.5828175 
        6.95   -2.9984194    1.2952852    2.5140195 
        6.96   -2.9996161     1.300524    2.4826917 
        6.97   -2.9989528    1.2800476    2.5770018 
        6.98   -2.9997011    1.2450924    2.7389953 
        6.99   -2.9987829    1.2290895    2.8219953 
           7   -3.0003696    1.2386546    2.7879991 
        7.01   -2.9993442    1.2520378    2.7419776 
        7.02   -2.9985524    1.2503262    2.7654552 
        7.03   -2.9989177    1.2389949    2.8341773 
        7.04   -2.9981252    1.2416567    2.8483863 
        7.05   -2.9986695    1.2642737     2.779731 
        7.06   -3.0002598    1.2862566    2.7234297 
        7.07   -2.9996039    1.2854068    2.7851305 
        7.08   -2.9974976    1.2638729    2.9514394 
        7.09   -2.9969674    1.2377778    3.1389567 
         7.1   -2.9964426     1.216963    3.2988568 
        7.11   -2.9968354    1.2051694    3.4084355 
        7.12   -2.9981468    1.2001844    3.4760164 
        7.13   -2.9984049    1.1972159    3.5260518 
        7.14   -2.9989249    1.1986637    3.5467009 
        7.15    -2.999325    1.2072757    3.5286598 
        7.16   -3.0006353    1.2168952    3.5007725 
        7.17    -2.998942    1.2197206    3.5067086 
        7.18   -2.9997258    1.2117561    3.5551569 
        7.19   -2.9999757    1.1949055    3.6370683 
         7.2   -2.9986487    1.1817873    3.6898747 
        7.21   -2.9989072    1.1919542    3.6164307 
        7.22   -2.9985385    1.2268319     3.415247 
        7.23   -2.9980305    1.2657867    3.1842224 
        7.24   -2.9959407    1.2935648    3.0019823 
        7.25   -2.9971086    1.3103493    2.8660941 
        7.26   -2.9965874    1.3232304    2.7562343 
        7.27    -2.997121     1.332326    2.6697128 
        7.28   -2.9986917    1.3290031    2.6461802 
        7.29   -2.9990794    1.3108141     2.700319 
         7.3   -2.9995889    1.2867466    2.7883597 
        7.31   -2.9995825    1.2741799     2.831858 
        7.32   -3.0009076     1.283521    2.7823447 
        7.33   -3.0014637    1.2954334    2.7334038 
        7.34    -3.000813    1.2786857    2.8290563 
        7.35   -3.0026167    1.2289848    3.0813802 
        7.36   -3.0024599    1.1688016    3.3871667 
        7.37   -3.0023074    1.1263137     3.603038 
        7.38   -3.0010006    1.1247273    3.6174312 
        7.39   -3.0001155    1.1630896    3.4311748 
         7.4   -2.9996114    1.2138363    3.1739209 
        7.41   -3.0001339    1.2547695    2.9545108 
        7.42   -2.9990882    1.2796354    2.8149619 
        7.43   -2.9976528    1.2873796      2.76364 
        7.44   -2.9979059    1.2787948    2.7940953 
        7.45   -2.9978893    1.2639278    2.8610952 
        7.46    -2.998408    1.2597626     2.883259 
        7.47   -2.9998525    1.2694624    2.8438167 
        7.48   -2.9998591    1.2849861    2.7850155 
        7.49   -2.9994849    1.2979923    2.7481697 
         7.5   -2.9997585     1.293471    2.8023526 
        7.51   -2.9990968    1.2601617    2.9977647 
        7.52   -2.9988009    1.2086749      3.27414 
        7.53   -2.9986375    1.1760337    3.4534791 
        7.54   -2.9990521    1.1908913    3.3996232 
        7.55   -2.9979031    1.2317271     3.211806 
        7.56   -2.9979056    1.2679365    3.0289663 
        7.57   -2.9981567    1.2927267    2.8896948 
        7.58   -2.9973698     1.312354     2.771371 
        7.59   -2.9964563    1.3301894    2.6590401 
         7.6   -2.9964548    1.3460341    2.5546054 
        7.61    -2.996457    1.3601924    2.4626911 
        7.62   -2.9971164    1.3692385     2.402326 
        7.63   -2.9969925    1.3666069    2.4091944 
        7.64   -2.9973807    1.3492592    2.4970727 
        7.65   -2.9968572    1.3210285    2.6510699 
        7.66   -2.9979065    1.2852292    2.8487435 
        7.67   -2.9978983    1.2419227    3.0862692 
        7.68   -2.9993183    1.2049711    3.2884856 
        7.69   -2.9981596    1.1894269    3.3872701 
         7.7   -2.9994622    1.1848012    3.4160979 
        7.71   -2.9989309    1.1913706    3.3812213 
        7.72   -2.9994664    1.2129181    3.2635737 
        7.73   -3.0002509    1.2356292    3.1270265 
        7.74   -3.0006252    1.2561542    2.9898234 
        7.75   -3.0002397    1.2874788    2.8007586 
        7.76   -3.0010581    1.3239044    2.5908016 
        7.77   -3.0008005    1.3344973    2.5076652 
        7.78   -3.0016734    1.3154593    2.5667266 
        7.79   -3.0002166    1.3041359    2.6057621 
         7.8   -3.0007786    1.3184205    2.5393569 
        7.81   -3.0008066    1.3237962    2.5289989 
        7.82   -3.0010589    1.2936753    2.6937539 
        7.83   -2.9999708    1.2412787    2.9693668 
        7.84   -2.9989048    1.2090414    3.1514479 
        7.85   -2.9981464    1.2179957    3.1360683 
        7.86   -2.9981624    1.2478838    3.0110359 
        7.87   -2.9993474     1.277329    2.8770686 
        7.88   -3.0005252    1.2928991    2.8010524 
        7.89   -3.0014223    1.2930254    2.7913484 
         7.9   -2.9999864    1.2911026    2.7915827 
        7.91   -2.9981639    1.2872225    2.7980151 
        7.92   -2.9981499    1.2772214    2.8255793 
        7.93   -2.9981393    1.2734208    2.8223435 
        7.94   -2.9974907    1.2841795    2.7518836 
        7.95   -2.9973744    1.3036673    2.6409296 
        7.96   -2.9976561    1.3163129    2.5656481 
        7.97   -2.9975202    1.3049625     2.608286 
        7.98   -2.9983971    1.2791648    2.7229141 
        7.99   -2.9982716    1.2724184    2.7595048 
           8   -2.9973865    1.2852704     2.710153 
        8.01    -2.996992    1.2933729    2.6786973 
        8.02   -2.9967176    1.2951809    2.6736878 
        8.03   -2.9978913    1.3002844    2.6512749 
        8.04   -2.9980199    1.3097429     2.611207 
        8.05   -2.9989384    1.3216115    2.5607423 
        8.06   -2.9981672    1.3273032    2.5434811 
        8.07   -2.9976456    1.3158668    2.6038392 
        8.08   -2.9984149    1.2890044    2.7283967 
        8.09   -2.9994385    1.2620918    2.8453431 
         8.1   -3.0002219    1.2536496    2.8709729 
        8.11   -3.0002313    1.2658927    2.7991141 
        8.12   -2.9994622    1.2872128    2.6875032 
        8.13   -2.9996017    1.3022199    2.6078466 
        8.14   -2.9998565    1.3007744    2.6087694 
        8.15   -2.9990552    1.2880701    2.6669327 
        8.16   -2.9981282      1.28025    2.7037994 
        8.17   -2.9982648    1.2905141    2.6547466 
        8.18   -2.9968469    1.3142682    2.5449778 
        8.19   -2.9964697    1.3340797    2.4536588 
         8.2   -2.9966031    1.3359361    2.4520049 
        8.21   -2.9967306    1.3159141     2.563211 
        8.22   -2.9972442    1.2800804    2.7579235 
        8.23    -2.997488    1.2413972    2.9716057 
        8.24    -2.998784    1.2188743    3.1084404 
        8.25   -2.9978887    1.2226185    3.1245929 
        8.26   -2.9972583    1.2396519    3.0761106 
        8.27   -2.9975291    1.2484798    3.0622088 
        8.28   -2.9983003    1.2416653    3.1185196 
        8.29   -2.9966022     1.230068    3.2006941 
         8.3    -2.996735    1.2166246    3.2855653 
        8.31   -2.9963274    1.2034668    3.3637759 
        8.32   -2.9961945    1.2026816    3.3780481 
        8.33   -2.9972469    1.2157018    3.3196425 
        8.34   -2.9983017    1.2332561    3.2329017 
        8.35   -2.9982993    1.2456482    3.1640823 
        8.36    -2.999854    1.2533725    3.1079119 
        8.37   -3.0006394     1.262644     3.042334 
        8.38   -3.0027363    1.2692645     2.985189 
        8.39   -3.0023412     1.266169    2.9764664 
         8.4   -3.0011596    1.2550441    3.0064324 
        8.41   -3.0027186    1.2432155    3.0345638 
        8.42   -3.0008851    1.2402961     3.024544 
        8.43   -3.0014125    1.2526166    2.9377015 
        8.44   -3.0005145    1.2747244    2.8069162 
        8.45   -2.9997391    1.2908987    2.7051574 
        8.46   -2.9996035     1.291395    2.6804347 
        8.47    -3.000248    1.2808752    2.7142222 
        8.48    -3.000772    1.2673424    2.7702736 
        8.49   -3.0011612    1.2535157    2.8303814 
         8.5   -3.0007586    1.2443465    2.8674084 
        8.51   -3.0006193    1.2516821    2.8250831 
        8.52   -3.0006373    1.2807823     2.685219 
        8.53   -3.0007985    1.3124854    2.5440159 
        8.54   -3.0001603    1.3156462    2.5515483 
        8.55   -2.9981823    1.2778021    2.7650068 
        8.56   -2.9991849     1.222781     3.060532 
        8.57   -2.9999643     1.193928    3.2358222 
        8.58   -2.9988311    1.1966477     3.259201 
        8.59   -3.0009215       1.1972    3.2697153 
         8.6   -3.0005039    1.1930953    3.2919549 
        8.61   -3.0010411    1.2015299    3.2494292 
        8.62   -3.0007866    1.2092575     3.205349 
        8.63   -3.0006409    1.2066014     3.202163 
        8.64   -3.0012764    1.2075244      3.17686 
        8.65   -3.0007727    1.2267849    3.0667676 
        8.66   -3.0007753    1.2515148    2.9264601 
        8.67   -3.0027428    1.2733363    2.7956635 
        8.68   -3.0018476    1.2795977    2.7439796 
        8.69   -2.9999885    1.2584251    2.8208957 
         8.7   -2.9995641    1.2388387    2.8890189 
        8.71   -2.9986769    1.2489056    2.8237442 
        8.72   -2.9981848    1.2661513    2.7260702 
        8.73   -2.9983141    1.2605766    2.7359976 
        8.74   -2.9973707    1.2335902    2.8536847 
        8.75   -2.9970899    1.2146796    2.9436271 
        8.76   -2.9959328    1.2245602    2.9135138 
        8.77   -2.9960809    1.2467524    2.8309638 
        8.78   -2.9952926    1.2620173    2.7860091 
        8.79   -2.9955587    1.2690258    2.7836653 
         8.8   -2.9971271    1.2626584    2.8453962 
        8.81    -2.996322    1.2445831    2.9658929 
        8.82   -2.9967076    1.2355418    3.0440613 
        8.83   -2.9981637    1.2421521    3.0478828 
        8.84    -2.998941    1.2472677    3.0539964 
        8.85   -2.9982835    1.2519585     3.060674 
        8.86   -2.9994705    1.2599029     3.049811 
        8.87   -2.9993481    1.2598043    3.0789001 
        8.88   -2.9993343      1.24585    3.1706377 
        8.89   -2.9999663    1.2321023    3.2563769 
         8.9   -3.0008804    1.2378296    3.2449273 
        8.91   -2.9999746    1.2645566     3.130246 
        8.92   -3.0018126    1.3020443    2.9548865 
        8.93   -3.0003908    1.3375341    2.7946897 
        8.94   -2.9996217    1.3557843    2.7220299 
        8.95   -2.9981954    1.3422673     2.810319 
        8.96     -2.99831    1.2929983     3.069712 
        8.97   -2.9978602    1.2330544    3.3765569 
        8.98   -2.9981238    1.2129202    3.4893878 
        8.99   -2.9986861    1.2313644    3.4094638 
           9   -2.9984294    1.2492691    3.3197328 
        9.01   -2.9981594    1.2536196    3.2876045 
        9.02    -2.998675    1.2481413    3.2994711 
        9.03   -2.9997174    1.2389526    3.3263773 
        9.04    -2.999062    1.2328994     3.335729 
        9.05   -2.9986636    1.2371052    3.2857967 
        9.06   -2.9970973    1.2601303    3.1371376 
        9.07   -2.9958111    1.2998376     2.901315 
        9.08    -2.996095    1.3347556    2.6837756 
        9.09   -2.9968857    1.3415703    2.6029228 
         9.1   -2.9968721    1.3135335    2.6956121 
        9.11    -2.997631      1.26627      2.88428 
        9.12   -2.9982658    1.2243455    3.0493595 
        9.13   -2.9987791    1.2070467    3.0946831 
        9.14   -2.9990514    1.2219962    2.9842405 
        9.15   -2.9974956     1.258879    2.7721986 
        9.16    -2.996854     1.301613    2.5368104 
        9.17   -2.9975149    1.3334497    2.3627759 
        9.18   -2.9979032    1.3423217    2.3128074 
        9.19   -2.9986793    1.3285707    2.3859847 
         9.2   -2.9965848    1.2997965    2.5501789 
        9.21   -2.9968369    1.2655989    2.7465334 
        9.22    -2.996832     1.237787    2.9174772 
        9.23   -2.9957988    1.2217228    3.0331237 
        9.24   -2.9952769    1.2107767    3.1155825 
        9.25   -2.9957897    1.2054256    3.1611802 
        9.26   -2.9956626    1.2109229    3.1515568 
        9.27   -2.9938443     1.222209    3.1141337 
        9.28   -2.9937155    1.2305823    3.0858456 
        9.29   -2.9946359    1.2325974    3.0864038 
         9.3    -2.995952    1.2239316    3.1370322 
        9.31   -2.9954195    1.2009777    3.2537973 
        9.32   -2.9955197    1.1803998    3.3524738 
        9.33   -2.9956522    1.1897467    3.3078842 
        9.34   -2.9952846     1.226926    3.1321293 
        9.35   -2.9954291    1.2675114     2.940017 
        9.36   -2.9956995    1.2923405    2.8260611 
        9.37    -2.999095    1.2917186    2.8317031 
        9.38   -2.9985539    1.2667158    2.9584856 
        9.39   -2.9970852    1.2384375    3.0979214 
         9.4   -2.9983839    1.2379652    3.0984857 
        9.41   -2.9972365    1.2690783    2.9508379 
        9.42   -2.9972488    1.3056747    2.7704621 
        9.43   -2.9978978    1.3294048    2.6481214 
        9.44   -2.9975029    1.3377373    2.6042194 
        9.45   -2.9982809    1.3305603     2.636879 
        9.46   -2.9972268    1.3129014    2.7261809 
        9.47   -2.9978721    1.2953498    2.8147972 
        9.48   -2.9983906    1.2870981    2.8599953 
        9.49   -2.9978715    1.2939977    2.8352362 
         9.5   -2.9984089    1.3127145     2.752979 
        9.51   -2.9988057    1.3298545    2.6764101 
        9.52   -2.9989307    1.3386233    2.6374635 
        9.53   -2.9997109    1.3424114    2.6196025 
        9.54   -3.0002296    1.3460136    2.6016535 
        9.55    -3.001276    1.3519427    2.5707076 
        9.56   -3.0019322    1.3586029    2.5365302 
        9.57   -3.0011537    1.3605321    2.5271203 
        9.58   -3.0023359    1.3524052    2.5626228 
        9.59     -3.00247    1.3295754    2.6681967 
         9.6   -3.0015337    1.2943437    2.8289954 
        9.61   -3.0008553    1.2677442    2.9437998 
        9.62   -3.0006072    1.2706816    2.9175407 
        9.63   -3.0002372    1.2937955    2.7966891 
        9.64   -3.0011598    1.3164412    2.6790433 
        9.65   -2.9982901    1.3293133    2.6221148 
        9.66   -2.9984236    1.3319793    2.6207058 
        9.67   -2.9969876    1.3226596    2.6891199 
        9.68   -2.9959328    1.3028861    2.8131954 
        9.69   -2.9950151    1.2817215    2.9476382 
         9.7   -2.9947568    1.2650032    3.0601153 
        9.71   -2.9958098    1.2509909    3.1528657 
        9.72   -2.9968526    1.2356257    3.2423791 
        9.73   -2.9969772    1.2227635      3.31055 
        9.74   -2.9976246     1.220484    3.3183399 
        9.75   -2.9978809    1.2351654    3.2404203 
        9.76    -2.996975    1.2673082    3.0792072 
        9.77   -2.9962013    1.3055773    2.8876262 
        9.78    -2.995946    1.3352548    2.7357126 
        9.79   -2.9972461    1.3502663    2.6527083 
         9.8   -2.9980299     1.354039    2.6290209 
        9.81   -2.9971267    1.3468553    2.6660442 
        9.82   -2.9956939    1.3228274    2.7872745 
        9.83   -2.9965921    1.2840767     2.975527 
        9.84   -2.9981444    1.2457797    3.1602742 
        9.85   -2.9991849    1.2220585    3.2739068 
        9.86   -2.9993126     1.219425    3.2836361 
        9.87   -3.0003684    1.2402892     3.177123 
        9.88   -2.9994851    1.2723765    3.0191635 
        9.89   -2.9989769    1.2886026    2.9324639 
         9.9   -2.9994863    1.2754417    2.9779092 
        9.91   -2.9997151    1.2491017    3.0815414 
        9.92   -2.9991894     1.239988    3.1042304 
        9.93   -2.9986979    1.2503882     3.034091 
        9.94   -3.0001408    1.2520551    2.9969422 
        9.95   -2.9997289    1.2349596    3.0460355 
        9.96   -3.0002239    1.2159052    3.0997532 
        9.97   -3.0003519     1.219092    3.0470151 
        9.98    -3.001405    1.2523771    2.8468446 
        9.99    -3.000895    1.3070298    2.5437925 
          10   -3.0022175     1.367947    2.2081586 
Loop time of 0.869424 on 8 procs for 10000 steps with 125 atoms

Performance: 993761.540 tau/day, 11501.870 timesteps/s
174.3% CPU use with 1 MPI tasks x 8 OpenMP threads

MPI task timing breakdown:
Section |  min time  |  avg time  |  max time  |%varavg| %total
---------------------------------------------------------------
Pair    | 0.54226    | 0.54226    | 0.54226    |   0.0 | 62.37
Neigh   | 0          | 0          | 0          |   0.0 |  0.00
Comm    | 0.047849   | 0.047849   | 0.047849   |   0.0 |  5.50
Output  | 0.018211   | 0.018211   | 0.018211   |   0.0 |  2.09
Modify  | 0.25911    | 0.25911    | 0.25911    |   0.0 | 29.80
Other   |            | 0.001992   |            |       |  0.23

Nlocal:        125.000 ave         125 max         125 min
Histogram: 1 0 0 0 0 0 0 0 0 0
Nghost:        2227.00 ave        2227 max        2227 min
Histogram: 1 0 0 0 0 0 0 0 0 0
Neighs:        19064.0 ave       19064 max       19064 min
Histogram: 1 0 0 0 0 0 0 0 0 0

Total # of neighbors = 19064
Ave neighs/atom = 152.51200
Neighbor list builds = 23
Dangerous builds = 0
unfix nve
reset_timestep 0

### BRING SYSTEM TO REQUIRED STATE ###
variable tdamp equal ${timestep}*100
variable tdamp equal 0.001*100
variable pdamp equal ${timestep}*1000
variable pdamp equal 0.001*1000
fix npt all npt temp ${T} ${T} ${tdamp} iso ${p} ${p} ${pdamp}
fix npt all npt temp 1.5 ${T} ${tdamp} iso ${p} ${p} ${pdamp}
fix npt all npt temp 1.5 1.5 ${tdamp} iso ${p} ${p} ${pdamp}
fix npt all npt temp 1.5 1.5 0.1 iso ${p} ${p} ${pdamp}
fix npt all npt temp 1.5 1.5 0.1 iso 3 ${p} ${pdamp}
fix npt all npt temp 1.5 1.5 0.1 iso 3 3 ${pdamp}
fix npt all npt temp 1.5 1.5 0.1 iso 3 3 1
run 10000
Last active /omp style is pair_style lj/cut/omp
Per MPI rank memory allocation (min/avg/max) = 10.63 | 10.63 | 10.63 Mbytes
Time TotEng Temp Press 
          10   -3.0022175     1.367947    2.2081586 
       10.01   -2.9987947     1.416939    1.9502969 
       10.02   -2.9941207    1.4407251    1.8412034 
       10.03    -2.987292    1.4369716    1.8973378 
       10.04   -2.9758894    1.4137249    2.0851421 
       10.05   -2.9624381    1.3808031    2.3508014 
       10.06   -2.9450438    1.3431316    2.6668111 
       10.07   -2.9199744    1.3064495    3.0035975 
       10.08   -2.8906537    1.2804896    3.3010745 
       10.09    -2.854697     1.284373    3.4687616 
        10.1    -2.810143    1.3333387    3.4411139 
       10.11   -2.7594989     1.403861    3.3247813 
       10.12   -2.7051685    1.4665562    3.2535436 
       10.13   -2.6516156    1.5140258    3.2550052 
       10.14    -2.603198    1.5395685    3.3463778 
       10.15   -2.5615509    1.5488434    3.4928667 
       10.16   -2.5261922    1.5568779    3.6244252 
       10.17   -2.4987669    1.5561632     3.768189 
       10.18   -2.4802772    1.5464656    3.9191391 
       10.19   -2.4661617    1.5394524    4.0284104 
        10.2   -2.4571694    1.5307571    4.1098732 
       10.21   -2.4521849    1.5244606    4.1453383 
       10.22   -2.4505454    1.5366699    4.0671741 
       10.23   -2.4526201    1.5661146    3.8911948 
       10.24   -2.4553606    1.5888971     3.744737 
       10.25   -2.4628954    1.5821876     3.735984 
       10.26   -2.4740034    1.5416735    3.8885004 
       10.27   -2.4868731    1.4727331    4.1690023 
       10.28   -2.4979667    1.3971255    4.4630212 
       10.29   -2.5116874     1.356996    4.5565934 
        10.3   -2.5224299    1.3513518     4.458112 
       10.31   -2.5310284     1.348431    4.3127099 
       10.32   -2.5369531    1.3687225    4.0436987 
       10.33   -2.5392779    1.4275003    3.6018056 
       10.34   -2.5350005    1.4897782     3.162236 
       10.35    -2.529284    1.5257045    2.8619791 
       10.36   -2.5218591    1.5264346    2.7458455 
       10.37   -2.5137827    1.4981898    2.7802184 
       10.38   -2.5066759    1.4621919    2.8595365 
       10.39   -2.4973133    1.4458955    2.8606898 
        10.4    -2.487124     1.457733    2.7408351 
       10.41   -2.4740765    1.4837427    2.5634923 
       10.42    -2.457679    1.5099716    2.3917922 
       10.43   -2.4396677    1.5308434    2.2491713 
       10.44   -2.4195897     1.548322    2.1290287 
       10.45   -2.4008299    1.5682345    2.0028001 
       10.46   -2.3787869    1.5901822    1.8817809 
       10.47   -2.3608199    1.6040303    1.8013598 
       10.48   -2.3415129    1.6005983    1.8116094 
       10.49   -2.3256263    1.5806279    1.9034765 
        10.5   -2.3118039    1.5557382    2.0302561 
       10.51   -2.2971979     1.538482    2.1451532 
       10.52   -2.2838553    1.5215731    2.2780241 
       10.53   -2.2678449    1.4874851    2.5083403 
       10.54    -2.251823    1.4468368    2.7850292 
       10.55   -2.2336181    1.4305279    2.9784292 
       10.56   -2.2095086    1.4266982    3.1342334 
       10.57   -2.1796389    1.4297734    3.2685066 
       10.58   -2.1410503    1.4507698    3.3366264 
       10.59    -2.095711    1.4862763    3.3484755 
        10.6   -2.0392332    1.5322502     3.328586 
       10.61   -1.9765469    1.5823403    3.2963272 
       10.62   -1.9149517    1.6296981    3.2660038 
       10.63   -1.8586622    1.6708051     3.238736 
       10.64   -1.8109515    1.7024575     3.214793 
       10.65   -1.7752228    1.7260767     3.179695 
       10.66   -1.7509629    1.7493192    3.1063349 
       10.67   -1.7398746    1.7661922    3.0250966 
       10.68   -1.7405476    1.7600061    3.0150462 
       10.69   -1.7490593    1.7274311    3.1013413 
        10.7   -1.7648763    1.6794888    3.2384811 
       10.71   -1.7851462    1.6385084    3.3315099 
       10.72   -1.8064631     1.636934    3.2467722 
       10.73   -1.8303852    1.6667571     3.015453 
       10.74   -1.8580899    1.6821479    2.8299364 
       10.75    -1.888399    1.6677583     2.763637 
       10.76   -1.9203058     1.632801    2.7840591 
       10.77   -1.9530993    1.5902159    2.8366605 
       10.78   -1.9833363    1.5546556    2.8621981 
       10.79    -2.012351    1.5321565    2.8317699 
        10.8   -2.0382093    1.5145571    2.7832134 
       10.81   -2.0617888    1.4884617    2.7745048 
       10.82   -2.0830996    1.4519227    2.8179761 
       10.83   -2.1016562    1.4242462     2.837829 
       10.84   -2.1176804    1.4188765    2.7776879 
       10.85   -2.1304942    1.4326435    2.6506165 
       10.86   -2.1399271    1.4466305    2.5351131 
       10.87   -2.1475388    1.4383499    2.5209835 
       10.88   -2.1536075    1.4075439    2.6073075 
       10.89   -2.1545655    1.3760775    2.7065136 
        10.9    -2.152984    1.3743224    2.6899096 
       10.91   -2.1474119    1.4100944    2.5311192 
       10.92   -2.1385524    1.4535917    2.3556115 
       10.93   -2.1271722    1.4804509    2.2674224 
       10.94   -2.1145104    1.4942052    2.2533781 
       10.95   -2.1010454    1.5052464    2.2686069 
       10.96   -2.0872291    1.5141368    2.3066239 
       10.97   -2.0709541    1.5149056    2.3931445 
       10.98    -2.054747    1.5044166    2.5361266 
       10.99   -2.0350594    1.4895265    2.7106003 
          11   -2.0129094    1.4893772    2.8354908 
       11.01   -1.9916229    1.5132154    2.8688425 
       11.02   -1.9664533    1.5420706    2.8968743 
       11.03   -1.9390873    1.5558682    3.0021924 
       11.04   -1.9094637    1.5498776     3.204877 
       11.05   -1.8786638      1.53423     3.456566 
       11.06   -1.8445972    1.5264828    3.6787612 
       11.07   -1.8095128      1.53559    3.8224833 
       11.08   -1.7700059    1.5526017    3.9229167 
       11.09   -1.7271198    1.5841261     3.950834 
        11.1   -1.6815221    1.6407376    3.8643889 
       11.11   -1.6369589    1.7059467    3.7265095 
       11.12   -1.5958691    1.7550034    3.6324825 
       11.13   -1.5604464    1.7878133    3.5742468 
       11.14    -1.533523    1.8246952    3.4596652 
       11.15   -1.5180144    1.8747447    3.2466836 
       11.16   -1.5136343    1.9166098    3.0271474 
       11.17   -1.5264211    1.9222487    2.9149611 
       11.18   -1.5557954    1.8670006    3.0147656 
       11.19   -1.5997389    1.7652921    3.2669782 
        11.2    -1.655282    1.6621586    3.4829291 
       11.21   -1.7176552    1.6018924    3.4823953 
       11.22   -1.7827013    1.5998623    3.2155925 
       11.23   -1.8485354    1.6152229    2.8690637 
       11.24   -1.9117348     1.605073    2.6446782 
       11.25   -1.9694878    1.5672258    2.5722984 
       11.26   -2.0167457     1.510271    2.6255971 
       11.27    -2.052686    1.4617971    2.6839956 
       11.28   -2.0823401    1.4628941    2.5638647 
       11.29   -2.1047787    1.4968302    2.3277641 
        11.3   -2.1224214    1.5283049    2.1176496 
       11.31   -2.1376796    1.5474751    1.9782357 
       11.32   -2.1508625    1.5526218    1.9226854 
       11.33    -2.164937    1.5449023    1.9468552 
       11.34   -2.1761771    1.5209927    2.0709519 
       11.35   -2.1863553    1.4767777    2.3044774 
       11.36   -2.1944936    1.4259063    2.5830259 
       11.37   -2.1994498     1.395472    2.7846037 
       11.38   -2.1997315    1.4019569    2.8336877 
       11.39   -2.1986732    1.4361597    2.7595798 
        11.4   -2.1961828    1.4730009    2.6676278 
       11.41   -2.1922199    1.4999569    2.6150844 
       11.42   -2.1882584     1.519395    2.5955283 
       11.43   -2.1822329     1.534427    2.6033311 
       11.44   -2.1781922    1.5373695    2.6672101 
       11.45   -2.1756705    1.5160794    2.8383255 
       11.46   -2.1711493    1.4706473    3.1164536 
       11.47   -2.1656623    1.4179817    3.4184708 
       11.48    -2.158345    1.3897522     3.601258 
       11.49   -2.1505568    1.4091923    3.5585431 
        11.5   -2.1378044    1.4657221    3.3415761 
       11.51   -2.1258529    1.5413242    3.0290054 
       11.52   -2.1159971    1.6069636      2.75541 
       11.53   -2.1077428    1.6393865    2.6309671 
       11.54    -2.103355    1.6375979    2.6624373 
       11.55   -2.1044692    1.6115025    2.8036946 
       11.56   -2.1084191    1.5782901    2.9803094 
       11.57   -2.1151016    1.5491889     3.137901 
       11.58   -2.1248199    1.5218062    3.2811629 
       11.59   -2.1370056     1.488442    3.4419671 
        11.6   -2.1514159    1.4474514    3.6262315 
       11.61   -2.1661562    1.4111497    3.7827456 
       11.62   -2.1812984    1.3903225    3.8615451 
       11.63   -2.1971257    1.3880074    3.8452434 
       11.64   -2.2107718     1.401486    3.7488568 
       11.65   -2.2255526    1.4224752    3.6059558 
       11.66   -2.2401778    1.4350058     3.490307 
       11.67   -2.2561698    1.4346131    3.4213996 
       11.68   -2.2704384    1.4286231    3.3735183 
       11.69   -2.2855062    1.4210964    3.3237738 
        11.7    -2.301067    1.4234732    3.2230136 
       11.71   -2.3156911    1.4456407    3.0336218 
       11.72   -2.3291002    1.4720671    2.8252692 
       11.73   -2.3443526    1.4773183    2.7047769 
       11.74   -2.3595098    1.4535484    2.7096911 
       11.75   -2.3740723     1.430943    2.7143339 
       11.76   -2.3860252    1.4339797    2.6186203 
       11.77   -2.3999637    1.4488369     2.474422 
       11.78   -2.4133283    1.4631264    2.3448744 
       11.79   -2.4247554    1.4714004    2.2632813 
        11.8   -2.4368378    1.4644006     2.268861 
       11.81   -2.4484143    1.4388355    2.3759284 
       11.82    -2.459317    1.4072318    2.5268137 
       11.83   -2.4658536    1.3843763    2.6572632 
       11.84   -2.4714294    1.3776621    2.7255654 
       11.85   -2.4742765    1.3831444    2.7500081 
       11.86   -2.4736557     1.391998    2.7712661 
       11.87   -2.4688128    1.3946823    2.8319808 
       11.88     -2.46205    1.3873964    2.9421857 
       11.89   -2.4499522    1.3887267    3.0245021 
        11.9   -2.4372343    1.4170569     2.992405 
       11.91   -2.4181297    1.4607518    2.9064206 
       11.92   -2.3953053    1.4955592    2.8708871 
       11.93    -2.371084    1.5078856    2.9431126 
       11.94   -2.3446616    1.4968973    3.1236055 
       11.95   -2.3172592    1.4813525    3.3203622 
       11.96   -2.2862149    1.4958273    3.3838765 
       11.97   -2.2527074    1.5390226     3.319996 
       11.98   -2.2186021    1.5684449    3.3123604 
       11.99   -2.1845212    1.5729961    3.4103573 
          12   -2.1518814    1.5860353    3.4677263 
       12.01   -2.1223726    1.6181507    3.4304072 
       12.02   -2.0962238    1.6520674    3.3678485 
       12.03   -2.0734722    1.6807675    3.3128073 
       12.04   -2.0571554    1.6978977    3.2924922 
       12.05   -2.0461803    1.6966912    3.3399118 
       12.06   -2.0413689    1.6829091    3.4280352 
       12.07   -2.0435266     1.670011    3.4940716 
       12.08   -2.0514081    1.6606738    3.5242226 
       12.09   -2.0673043      1.64496    3.5550289 
        12.1   -2.0871884    1.6172511    3.6162526 
       12.11   -2.1143876    1.5846456    3.6731194 
       12.12   -2.1474909     1.552935     3.702961 
       12.13    -2.184602    1.5152054    3.7366365 
       12.14    -2.224851    1.4636205    3.8065362 
       12.15   -2.2645297    1.4109367      3.85998 
       12.16   -2.3061162    1.3850486    3.7710317 
       12.17   -2.3459534     1.388692    3.5334923 
       12.18   -2.3841857    1.4041579     3.229315 
       12.19   -2.4212874    1.4184619    2.9250751 
        12.2   -2.4557429    1.4252861    2.6610738 
       12.21   -2.4862986    1.4223999    2.4562414 
       12.22   -2.5147615    1.4137315    2.2957873 
       12.23   -2.5412877    1.4089915    2.1432617 
       12.24   -2.5620537     1.408901    2.0059745 
       12.25   -2.5810006    1.4001616    1.9364888 
       12.26   -2.5972506    1.3777209    1.9573719 
       12.27   -2.6107444    1.3538269     2.015331 
       12.28   -2.6189307    1.3369809     2.074612 
       12.29   -2.6250589    1.3245128    2.1377494 
        12.3   -2.6260362    1.3128628     2.222169 
       12.31    -2.618909    1.2991952    2.3431933 
       12.32   -2.6065678    1.2817428    2.5025965 
       12.33   -2.5864804    1.2649351    2.6834675 
       12.34   -2.5532352    1.2608544    2.8413251 
       12.35   -2.5072738    1.2803338    2.9296805 
       12.36   -2.4440872    1.3241462    2.9518407 
       12.37   -2.3674291    1.3963306    2.8832807 
       12.38   -2.2850584    1.4992117    2.6977934 
       12.39   -2.2060672    1.6118311    2.4633794 
        12.4   -2.1408639    1.7035868    2.2916916 
       12.41   -2.0922641    1.7516179     2.279728 
       12.42   -2.0611887    1.7507248    2.4533055 
       12.43   -2.0430915    1.7202575    2.7388065 
       12.44   -2.0344056    1.6839625    3.0370847 
       12.45   -2.0296622    1.6453994    3.3341829 
       12.46   -2.0288576    1.5975591    3.6514191 
       12.47   -2.0321113    1.5433566     3.967038 
       12.48   -2.0353642    1.4986622    4.2087629 
       12.49   -2.0407976    1.4841561    4.2769213 
        12.5   -2.0461862     1.512764    4.1186967 
       12.51   -2.0546675    1.5788106    3.7632727 
       12.52   -2.0667811    1.6466762    3.3789071 
       12.53    -2.084917     1.674384    3.1573944 
       12.54   -2.1085184    1.6566728    3.1307098 
       12.55   -2.1380501    1.6164578     3.198011 
       12.56   -2.1700235    1.5797878    3.2459117 
       12.57   -2.2049533    1.5597728    3.2141689 
       12.58   -2.2424059    1.5436433    3.1604252 
       12.59   -2.2794584    1.5133337    3.1712401 
        12.6   -2.3153978    1.4698804    3.2455584 
       12.61   -2.3486341    1.4260918    3.3270854 
       12.62   -2.3762981    1.3993026    3.3395969 
       12.63   -2.4014034    1.4038986    3.2156133 
       12.64   -2.4220335    1.4258411    3.0231405 
       12.65   -2.4406747    1.4305969     2.912826 
       12.66   -2.4577273     1.411158    2.9182542 
       12.67   -2.4690149    1.3930768    2.9374879 
       12.68    -2.480459    1.3853542    2.9203834 
       12.69   -2.4878795    1.3754259    2.9238422 
        12.7   -2.4907241    1.3596405    2.9632226 
       12.71   -2.4902762    1.3445032    3.0082162 
       12.72   -2.4864172    1.3354798    3.0356233 
       12.73   -2.4769215    1.3308777    3.0557904 
       12.74   -2.4632285    1.3306046    3.0666466 
       12.75   -2.4429517    1.3452509    3.0280324 
       12.76   -2.4186891    1.3818421    2.9090981 
       12.77   -2.3889558    1.4306689    2.7566565 
       12.78   -2.3545061    1.4790241    2.6263623 
       12.79    -2.315318    1.5189263    2.5517007 
        12.8   -2.2766141    1.5572743    2.4937427 
       12.81   -2.2367967    1.6018969    2.4216291 
       12.82   -2.2024995    1.6399642    2.3809116 
       12.83    -2.174913    1.6542726    2.4444583 
       12.84   -2.1501839    1.6376631    2.6470309 
       12.85   -2.1335167    1.6044931    2.9144145 
       12.86   -2.1213895    1.5819176    3.1300058 
       12.87   -2.1120862    1.5695552    3.2897681 
       12.88   -2.1055644    1.5444003    3.4820804 
       12.89   -2.1022978    1.5048886    3.7045259 
        12.9   -2.0994663    1.4804696    3.8311376 
       12.91    -2.097073    1.4928541    3.7705307 
       12.92   -2.0958168    1.5245219    3.6012789 
       12.93   -2.0950627    1.5595881    3.4031119 
       12.94   -2.0973354    1.5906511     3.214563 
       12.95    -2.102751    1.5996793    3.1152349 
       12.96   -2.1124336    1.5905533    3.0874934 
       12.97   -2.1225733    1.5826835    3.0553086 
       12.98   -2.1338529    1.5713086     3.036591 
       12.99   -2.1452692    1.5391618    3.1044678 
          13   -2.1583582    1.4914458    3.2337932 
       13.01   -2.1709975    1.4573098    3.3055431 
       13.02   -2.1805875     1.452613    3.2601563 
       13.03   -2.1862373    1.4526955    3.2037988 
       13.04   -2.1927264    1.4425423    3.1911475 
       13.05   -2.1953381    1.4469321    3.1245445 
       13.06   -2.1981787    1.4805775    2.9377561 
       13.07   -2.1989875    1.5122796     2.767876 
       13.08   -2.2019696    1.5181727    2.7136378 
       13.09   -2.2041318    1.5058919    2.7497417 
        13.1    -2.207133    1.4827536    2.8368248 
       13.11   -2.2096234    1.4522606    2.9500559 
       13.12   -2.2103008    1.4301601    3.0142524 
       13.13   -2.2083991    1.4380405    2.9363042 
       13.14   -2.2058384    1.4752665    2.7223097 
       13.15   -2.2015458     1.520126    2.4788182 
       13.16   -2.1992398    1.5525452    2.2999741 
       13.17   -2.1970004    1.5597965    2.2519022 
       13.18   -2.1953556    1.5404429     2.342297 
       13.19   -2.1958264    1.4997559    2.5413827 
        13.2   -2.1934846    1.4485475    2.7994474 
       13.21   -2.1904018    1.4089276    3.0086504 
       13.22   -2.1849944     1.399894    3.0837691 
       13.23   -2.1770766    1.4167335     3.042112 
       13.24   -2.1670162    1.4456235    2.9441098 
       13.25   -2.1546777    1.4773454    2.8347053 
       13.26    -2.141626    1.5073998    2.7370656 
       13.27   -2.1255592    1.5367442    2.6574876 
       13.28   -2.1074836    1.5628266    2.6104766 
       13.29   -2.0921857    1.5741928    2.6387876 
        13.3   -2.0754089    1.5606199    2.7890608 
       13.31   -2.0613799    1.5303366    3.0146423 
       13.32   -2.0451659    1.5065025    3.2181318 
       13.33   -2.0260161    1.4986663    3.3518117 
       13.34   -2.0052411    1.4960251    3.4485784 
       13.35   -1.9789787       1.5117    3.4548984 
       13.36   -1.9490616    1.5691404    3.2741065 
       13.37     -1.91368    1.6554217    2.9728866 
       13.38   -1.8757504    1.7324198     2.718603 
       13.39   -1.8390649    1.7747865    2.6207742 
        13.4   -1.8077999    1.7787459    2.6918463 
       13.41   -1.7825852     1.755142    2.8833143 
       13.42    -1.762967    1.7181031    3.1294546 
       13.43   -1.7496108    1.6794411    3.3681784 
       13.44   -1.7416685    1.6507515    3.5393282 
       13.45   -1.7386582    1.6496156    3.5624013 
       13.46   -1.7423821     1.696887    3.3513807 
       13.47   -1.7536167      1.75111    3.0816982 
       13.48   -1.7757716    1.7572799    2.9803163 
       13.49    -1.808122    1.7176458     3.041608 
        13.5   -1.8496614    1.6594583    3.1504573 
       13.51   -1.8981769    1.6007532    3.2303775 
       13.52   -1.9490887    1.5475453    3.2626184 
       13.53   -2.0008622     1.507306    3.2235465 
       13.54   -2.0518916    1.4774861    3.1323838 
       13.55   -2.0953505    1.4534834    3.0244479 
       13.56   -2.1353112    1.4538689    2.8253511 
       13.57   -2.1724306    1.4714991    2.5687534 
       13.58   -2.2032121    1.4856843    2.3507188 
       13.59   -2.2294268     1.486275    2.2161856 
        13.6   -2.2536603    1.4671743    2.1889481 
       13.61   -2.2735235    1.4371016    2.2361644 
       13.62   -2.2885442    1.4262878    2.2331458 
       13.63   -2.2990658      1.44371    2.1407649 
       13.64   -2.3056821    1.4626801    2.0663176 
       13.65   -2.3119652    1.4666206    2.0720329 
       13.66   -2.3173924    1.4628551    2.1254224 
       13.67   -2.3195063    1.4743127    2.1314135 
       13.68   -2.3199674    1.5093971    2.0512534 
       13.69   -2.3200195    1.5409937    1.9965494 
        13.7   -2.3219283    1.5408627    2.0834877 
       13.71   -2.3243462    1.5173606    2.2794267 
       13.72   -2.3245781    1.4939963    2.4848298 
       13.73   -2.3245767    1.4823003    2.6401669 
       13.74   -2.3230728    1.4853063    2.7292638 
       13.75   -2.3226303    1.4960345    2.7753543 
       13.76   -2.3208622    1.5102509    2.8017288 
       13.77   -2.3198728     1.515877    2.8584002 
       13.78   -2.3183638    1.5025416    2.9908953 
       13.79   -2.3205617    1.4902056    3.1050149 
        13.8   -2.3207483    1.5082718    3.0797914 
       13.81   -2.3243546    1.5494882    2.9362174 
       13.82   -2.3326578    1.5799334     2.822589 
       13.83   -2.3461214    1.5906608    2.7851117 
       13.84   -2.3671399    1.5856999    2.8070041 
       13.85   -2.3951462    1.5617918    2.9041375 
       13.86   -2.4292054    1.5010507    3.1537364 
       13.87   -2.4640013      1.41543    3.5067354 
       13.88   -2.5009456    1.3872818    3.5971731 
       13.89   -2.5372233    1.4069148     3.459555 
        13.9   -2.5713924    1.4252426    3.3121393 
       13.91   -2.6039527     1.442531    3.1651247 
       13.92   -2.6345782    1.4596982    3.0248185 
       13.93   -2.6640331    1.4701598    2.9275812 
       13.94   -2.6906709    1.4745564    2.8803339 
       13.95   -2.7124507    1.4792102    2.8630362 
       13.96   -2.7303092    1.4789246    2.8996333 
       13.97    -2.743266    1.4600091    3.0544411 
       13.98   -2.7508038    1.4078294    3.3898889 
       13.99   -2.7568439     1.325094    3.8727088 
          14   -2.7528934    1.2575187    4.2865779 
       14.01    -2.744802    1.2635291    4.3366845 
       14.02   -2.7323036    1.3444141    4.0117342 
       14.03    -2.718194    1.4506168    3.5454911 
       14.04   -2.7048608     1.539857    3.1494539 
       14.05   -2.6915685    1.5944243    2.9249221 
       14.06    -2.684248    1.6082736    2.8995157 
       14.07    -2.678431    1.5842761    3.0673425 
       14.08   -2.6767673     1.537334    3.3479242 
       14.09    -2.675411    1.4872759    3.6437939 
        14.1   -2.6756205    1.4493318    3.8696656 
       14.11   -2.6745896    1.4327581    3.9793041 
       14.12   -2.6737094    1.4386457    3.9645294 
       14.13   -2.6698474    1.4584047    3.8753407 
       14.14   -2.6686654    1.4747511    3.7883236 
       14.15   -2.6667055    1.4813675    3.7428464 
       14.16    -2.664276    1.4807763    3.7293737 
       14.17    -2.661995    1.4618687     3.793424 
       14.18   -2.6596639    1.4237007    3.9289021 
       14.19    -2.655963    1.4101778    3.9301677 
        14.2   -2.6501464    1.4543197    3.6514282 
       14.21   -2.6421767     1.514864    3.2901891 
       14.22   -2.6334956    1.5536361    3.0327052 
[...]
   27270   -2.3168148    1.4352106    1.7177907   0.72566184 
   27280   -2.2890931    1.4478229     1.706004   0.72389963 
   27290   -2.2605815    1.4656551    1.6916622   0.72238883 
   27300   -2.2323625    1.4706039      1.74488   0.72113126 
   27310   -2.2042347    1.4650734      1.85294   0.72011678 
   27320   -2.1789566    1.4583747    1.9681662   0.71932527 
   27330   -2.1552005    1.4575974    2.0570298   0.71873485 
   27340   -2.1362375     1.467812    2.0906095   0.71832892 
   27350   -2.1187418    1.4875611    2.0789412   0.71810119 
   27360   -2.1031491    1.5094043    2.0527383   0.71805411 
   27370   -2.0918909    1.5266615     2.037596   0.71819332 
   27380   -2.0825884    1.5381434    2.0440262   0.71852258 
   27390    -2.074876    1.5452923    2.0687004   0.71904175 
   27400   -2.0675571    1.5482948    2.1139516   0.71974718 
   27410   -2.0620454    1.5459162    2.1827876   0.72063123 
   27420   -2.0575113    1.5388236    2.2726214   0.72168152 
   27430   -2.0555443    1.5341373    2.3516108   0.72288201 
   27440   -2.0515541    1.5367564    2.4069863   0.72421828 
   27450   -2.0478785    1.5481581    2.4315914    0.7256805 
   27460   -2.0442483    1.5690149    2.4268573   0.72726474 
   27470   -2.0439867    1.5827737    2.4543541   0.72897175 
   27480   -2.0444594    1.5824253    2.5421369   0.73079636 
   27490   -2.0477115    1.5776486    2.6426626   0.73272279 
   27500   -2.0520234    1.5709656    2.7432256    0.7347318 
   27510      -2.0586    1.5552342    2.8671222    0.7368032 
   27520   -2.0642101    1.5415916    2.9714109   0.73891304 
   27530   -2.0712455     1.543239    2.9980552   0.74104148 
   27540   -2.0806009    1.5434715     3.015556    0.7431816 
   27550   -2.0914365    1.5293052    3.0826609   0.74532844 
   27560   -2.1030599    1.5108243    3.1623346   0.74746868 
   27570   -2.1149445    1.5019559    3.2003479   0.74958684 
   27580   -2.1261559    1.5022094    3.2028105   0.75167459 
   27590   -2.1400427    1.5002961    3.2124065   0.75373003 
   27600   -2.1539427    1.4954027    3.2341045   0.75575029 
   27610   -2.1664368    1.4960473    3.2310898   0.75773109 
   27620   -2.1817562    1.4963629    3.2172486   0.75967213 
   27630   -2.1975559    1.5055383    3.1556694   0.76157622 
   27640   -2.2136931    1.5337258    3.0043079   0.76345581 
   27650   -2.2336436    1.5617838    2.8401937   0.76533918 
   27660   -2.2552743    1.5840694    2.6945509   0.76725792 
   27670   -2.2817041    1.6094385    2.5325282   0.76924193 
   27680   -2.3128913    1.6028815    2.5094757   0.77132029 
   27690   -2.3444751    1.5750522    2.5958537   0.77349836 
   27700   -2.3745587    1.5462801    2.7078928    0.7757606 
   27710   -2.4026011    1.5236597    2.8113814   0.77808504 
   27720   -2.4281218    1.5200509     2.849281   0.78045181 
   27730   -2.4503516    1.5263285    2.8617155   0.78285218 
   27740   -2.4689241    1.5195523    2.9499745   0.78528129 
   27750    -2.483131    1.5013045    3.1089948   0.78772105 
   27760   -2.4934888    1.4890129    3.2592875   0.79014056 
   27770   -2.5000496    1.4940144     3.349271   0.79251017 
   27780   -2.5021087    1.4987286    3.4560636   0.79480952 
   27790   -2.5021967     1.494171    3.6143452    0.7970159 
   27800   -2.4981852     1.491957    3.7736428   0.79909823 
   27810   -2.4950002    1.4859958    3.9463579   0.80102403 
   27820   -2.4915827    1.4710823    4.1487244   0.80275796 
   27830   -2.4873615    1.4632444    4.3006049   0.80426088 
   27840   -2.4835727    1.4783622    4.3223798   0.80550406 
   27850   -2.4807519    1.4977325    4.2954311   0.80648157 
   27860   -2.4769529    1.5050747    4.3005128   0.80719759 
   27870   -2.4752768    1.5069362    4.3067601   0.80765212 
   27880   -2.4757542    1.5187522    4.2446669   0.80784575 
   27890   -2.4777489    1.5425455    4.1050891   0.80779155 
   27900   -2.4833991    1.5681991    3.9307391   0.80751729 
   27910   -2.4916374    1.5876484    3.7616386   0.80705741 
   27920   -2.5025765    1.5966196    3.6193463   0.80644574 
   27930   -2.5180307    1.5968364    3.4969576   0.80571119 
   27940   -2.5371905    1.5980082    3.3596183    0.8048792 
   27950   -2.5592186     1.592568    3.2499271   0.80397655 
   27960   -2.5849313    1.5622725    3.2520318   0.80302385 
   27970   -2.6116392    1.4993002    3.4036292   0.80202043 
   27980   -2.6396334    1.4059039    3.6828303   0.80093678 
   27990   -2.6639817    1.3300597    3.8699339   0.79972166 
   28000   -2.6846863    1.3364387    3.6747863    0.7983445 
   28010   -2.7030485    1.3889911    3.2634372   0.79684161 
   28020   -2.7180826    1.4233466    2.9409121   0.79528992 
   28030    -2.732153    1.4232613    2.7906272   0.79375237 
   28040   -2.7437038    1.4072879    2.7380891   0.79225998 
   28050   -2.7515691    1.3949304    2.6976802   0.79082436 
   28060   -2.7562557    1.3944791    2.6304287   0.78945385 
   28070   -2.7578398    1.4038694    2.5466293    0.7881613 
   28080   -2.7545424    1.4043693    2.5307899   0.78696138 
   28090   -2.7477524    1.3832923    2.6299737   0.78585582 
   28100   -2.7364332    1.3576088    2.7611612   0.78482585 
   28110   -2.7155973    1.3619205    2.7751805   0.78384774 
   28120   -2.6855927    1.4070629    2.6301636   0.78291926 
   28130   -2.6445403    1.4643401    2.4676068   0.78206629 
   28140   -2.5946301    1.5063558    2.4153271   0.78131833 
   28150   -2.5399157    1.5276515    2.4925734   0.78068487 
   28160    -2.481429    1.5381498    2.6472219   0.78015087 
   28170   -2.4268711     1.548272    2.8108272   0.77968653 
   28180   -2.3772433    1.5579856    2.9697528   0.77925928 
   28190    -2.333334    1.5662584    3.1171163    0.7788375 
   28200   -2.2948975    1.5748381     3.238659   0.77839226 
   28210   -2.2651548    1.5785367    3.3450749   0.77789933 
   28220   -2.2423544     1.588456    3.3866557   0.77733845 
   28230   -2.2263498    1.6206814    3.2972594   0.77670307 
   28240   -2.2164833    1.6439179    3.2183201   0.77600839 
   28250    -2.211935    1.6465462    3.2104881   0.77526926 
   28260   -2.2134676    1.6381637    3.2383197   0.77448809 
   28270   -2.2199479    1.6168771    3.3131075   0.77365926 
   28280   -2.2301657    1.5805748    3.4428377     0.772768 
   28290   -2.2426038    1.5423288    3.5689381   0.77178988 
   28300    -2.256429    1.5107078    3.6505327   0.77070089 
   28310   -2.2723644    1.4917759    3.6579084   0.76948596 
   28320   -2.2874314    1.4919244    3.5714903    0.7681448 
   28330   -2.3014295    1.4931595     3.474158   0.76669376 
   28340   -2.3153779    1.4791269    3.4400232   0.76515156 
   28350   -2.3302882    1.4433697    3.4938228   0.76352522 
   28360   -2.3447754    1.3951566    3.5882036    0.7618055 
   28370   -2.3568621    1.3784194    3.5312148   0.75997797 
   28380   -2.3652922    1.4102308    3.2514842    0.7580563 
   28390   -2.3706817    1.4577749    2.8946492   0.75609416 
   28400   -2.3727267    1.4944757      2.58839   0.75416068 
   28410   -2.3731745    1.5082635    2.3935587   0.75231547 
   28420   -2.3726606    1.5030179    2.2989136   0.75059678 
   28430   -2.3709126    1.4962806    2.2335295   0.74902392 
   28440   -2.3659655    1.4953516    2.1713842   0.74760945 
   28450     -2.36011    1.4893779    2.1553313   0.74636383 
   28460   -2.3529812    1.4745235    2.2025438   0.74528875 
   28470   -2.3424194    1.4622741    2.2681377   0.74437461 
   28480    -2.326486    1.4616948    2.3153028   0.74360802 
   28490   -2.3056222    1.4718232    2.3448021   0.74297882 
   28500   -2.2790984    1.4941812    2.3509941   0.74248062 
   28510   -2.2468794    1.5269411    2.3438407    0.7421115 
   28520   -2.2079793    1.5496326    2.4097125   0.74187068 
   28530   -2.1661438    1.5446285    2.6105806   0.74174353 
   28540   -2.1202315    1.5212981    2.8968076   0.74169062 
   28550   -2.0750621    1.5165227    3.0954579   0.74165802 
   28560   -2.0276444    1.5528637    3.1120424   0.74160799 
   28570   -1.9808427    1.6011051    3.0639774   0.74153526 
   28580   -1.9362954     1.625632    3.0988791   0.74144662 
   28590   -1.8996917    1.6242598    3.2170285   0.74133527 
   28600   -1.8688753    1.6219629    3.3146515   0.74117957 
   28610   -1.8443245    1.6473375    3.2730042   0.74096257 
   28620   -1.8253032    1.6814923    3.1748697   0.74069127 
   28630   -1.8126231    1.6819446    3.1967308   0.74038202 
   28640   -1.8081692    1.6499774    3.3287918   0.74003081 
   28650   -1.8075953    1.6224172    3.4184891   0.73961426 
   28660   -1.8132898    1.6321157    3.3203344   0.73911744 
   28670   -1.8232989    1.6814507    3.0302978   0.73856006 
   28680   -1.8378505    1.7338719    2.7100028   0.73799686 
   28690   -1.8604243    1.7494758    2.5325295   0.73748837 
   28700   -1.8915212    1.7134609    2.5673148   0.73706824 
   28710    -1.928199    1.6398084     2.762506   0.73673014 
   28720   -1.9660476    1.5629013    2.9788949    0.7364377 
   28730   -2.0030371    1.5056146    3.1187384   0.73614962 
   28740   -2.0373543    1.4595476    3.2122976   0.73583751 
   28750   -2.0660879    1.4263126    3.2544422   0.73548302 
   28760   -2.0917155    1.4189719    3.1884941   0.73507905 
   28770   -2.1117994    1.4280348    3.0581485   0.73463791 
   28780   -2.1272849    1.4442345    2.9038985   0.73418486 
   28790   -2.1399506    1.4650312    2.7390173   0.73375041 
   28800   -2.1530203     1.478287    2.6126845   0.73336633 
   28810   -2.1627091     1.473911    2.5739063   0.73305655 
   28820   -2.1686703    1.4607774    2.5871496   0.73282913 
   28830   -2.1740067    1.4597777    2.5625937   0.73268287 
   28840   -2.1775109    1.4739895    2.4902635    0.7326227 
   28850    -2.178734     1.486112     2.442618   0.73266151 
   28860   -2.1800135    1.4850954    2.4614728   0.73280792 
   28870   -2.1799697    1.4767631    2.5223926   0.73305859 
   28880   -2.1770847     1.473946    2.5707086   0.73340248 
   28890   -2.1754511    1.4778355    2.5906182   0.73383037 
   28900    -2.173019    1.4811919    2.6109095   0.73433773 
   28910   -2.1687604    1.4804979    2.6456224   0.73492048 
   28920   -2.1645105    1.4728981    2.7029131   0.73557175 
   28930   -2.1577449    1.4616743    2.7720192   0.73628038 
   28940   -2.1508263    1.4643264    2.7775123   0.73703425 
   28950   -2.1423947    1.4859995    2.6997765   0.73783262 
   28960   -2.1340515    1.5160201    2.5816512   0.73869016 
   28970   -2.1267398    1.5539688    2.4294144   0.73963031 
   28980   -2.1216077    1.6023717    2.2399691   0.74068375 
   28990    -2.118812     1.643635    2.0934553   0.74188695 
   29000   -2.1189721    1.6709682    2.0241923   0.74326883 
   29010   -2.1244708    1.6848916    2.0306961   0.74484376 
   29020   -2.1360584    1.6759916    2.1507368    0.7466105 
   29030   -2.1496603    1.6375982    2.4129767   0.74854515 
   29040   -2.1649145    1.5828848     2.751724   0.75059717 
   29050   -2.1809744    1.5438695    3.0189263   0.75270187 
   29060   -2.1963586    1.5318183    3.1552331   0.75480684 
   29070   -2.2113301    1.5248572    3.2453507   0.75688294 
   29080   -2.2244136    1.5037545    3.3723763   0.75891017 
   29090   -2.2371737    1.4825897    3.4738138   0.76086358 
   29100   -2.2486384    1.5208126    3.3039259   0.76272723 
   29110   -2.2604348    1.5879596    2.9942718   0.76453147 
   29120   -2.2729015    1.6218421    2.8250591   0.76633234 
   29130   -2.2868567    1.6102374    2.8657162   0.76816212 
   29140   -2.3017852    1.5660559    3.0678622   0.77001329 
   29150   -2.3148027    1.5157708    3.3170125    0.7718473 
   29160   -2.3246944    1.4919111    3.4663995   0.77361693 
   29170    -2.330778    1.4918271    3.5202637   0.77529207 
   29180   -2.3336254    1.4880591    3.5924313   0.77685961 
   29190   -2.3340818    1.4785086    3.6892693   0.77830491 
   29200   -2.3327501    1.4801184      3.73272   0.77960993 
   29210   -2.3330373     1.497498    3.6926756   0.78076651 
   29220    -2.334098    1.5206725     3.610395   0.78178184 
   29230   -2.3333094     1.546892    3.5037508   0.78267208 
   29240   -2.3338687     1.571045    3.3969915   0.78345823 
   29250   -2.3391853    1.5743369    3.3748163    0.7841601 
   29260   -2.3449751    1.5518053    3.4718362    0.7847815 
   29270   -2.3506856    1.5211365    3.6137212   0.78530477 
   29280   -2.3567378    1.4952993    3.7404406   0.78570312 
   29290   -2.3628493    1.4721574     3.856788   0.78595162 
   29300   -2.3691127    1.4520743    3.9563596   0.78602792 
   29310   -2.3750821    1.4399576    4.0140721   0.78591341 
   29320   -2.3804087    1.4394357     4.010732   0.78559781 
   29330    -2.384771    1.4536254    3.9311393   0.78508298 
   29340   -2.3887526    1.4707635    3.8237079   0.78438481 
   29350   -2.3933539     1.481358    3.7257975   0.78352469 
   29360   -2.3974726    1.5102607    3.5354884   0.78252507 
   29370   -2.4019757    1.5452868    3.3117259   0.78142344 
   29380   -2.4073629    1.5516619    3.2121679   0.78026176 
   29390   -2.4152508    1.5332187    3.2231315   0.77906068 
   29400   -2.4237676     1.501426    3.2959858   0.77781933 
   29410   -2.4333352    1.4590052    3.4116718   0.77652402 
   29420   -2.4433408    1.4194857    3.5053731   0.77515353 
   29430   -2.4499224    1.4004266    3.5013315   0.77369138 
   29440   -2.4546532    1.4088858    3.3649884   0.77213998 
   29450     -2.45676    1.4406841    3.1209471   0.77052682 
   29460    -2.455564    1.4799428    2.8496332   0.76889952 
   29470   -2.4491491    1.5093411    2.6411454   0.76731052 
   29480   -2.4397741    1.5170698     2.552183    0.7657999 
   29490   -2.4313796    1.5030896    2.5804325   0.76438496 
   29500   -2.4186546    1.4797457     2.678542   0.76306016 
   29510   -2.4028735    1.4668121    2.7537654   0.76180703 
   29520   -2.3823855    1.4759594    2.7540045   0.76061122 
   29530   -2.3548813    1.4928683    2.7396517   0.75947112 
   29540   -2.3218357    1.5143027    2.7230123   0.75838913 
   29550   -2.2865377    1.5406573    2.7012593   0.75736819 
   29560   -2.2476559    1.5594173    2.7313649   0.75641098 
   29570   -2.2079278    1.5631608    2.8392447   0.75551074 
   29580   -2.1687765    1.5546543    3.0056877   0.75464611 
   29590   -2.1336688    1.5419033    3.1833305    0.7537847 
   29600   -2.0994293    1.5367525    3.3191604   0.75289228 
   29610   -2.0698404    1.5470421    3.3698651   0.75194325 
   29620   -2.0412635    1.5643112       3.3741   0.75092745 
   29630   -2.0177173    1.5744165    3.3816508   0.74984388 
   29640   -1.9980681    1.5837708    3.3637446   0.74869225 
   29650     -1.98082     1.609796    3.2507156   0.74747818 
   29660   -1.9698421     1.645796    3.0731996   0.74622436 
   29670   -1.9633865    1.6606423    2.9752363   0.74496374 
   29680   -1.9630888    1.6338919    3.0453619   0.74371441 
   29690   -1.9663471    1.5780215    3.2313191    0.7424634 
   29700   -1.9734391    1.5412052    3.3260123    0.7411779 
   29710   -1.9824345     1.562097    3.1731199   0.73984271 
   29720   -1.9941191    1.6040655    2.9283721   0.73848593 
   29730   -2.0061695    1.6167135    2.8109149   0.73715249 
   29740   -2.0222565    1.5867278    2.8739985   0.73586467 
   29750   -2.0409242    1.5220424    3.0811098   0.73461025 
   29760   -2.0610289    1.4432586    3.3365994   0.73334981 
   29770    -2.079675    1.3863411    3.4831589   0.73203576 
   29780   -2.0959463    1.3967129       3.3343   0.73064384 
   29790   -2.1111448    1.4382278    3.0434908   0.72920176 
   29800   -2.1233076    1.4557179    2.8524616   0.72776351 
   29810   -2.1342927    1.4489852    2.7697362   0.72636694 
   29820   -2.1437925     1.438657    2.7125646   0.72502961 
   29830   -2.1537962    1.4385754    2.6182021   0.72376333 
   29840   -2.1606071    1.4497458    2.4853241    0.7225859 
   29850   -2.1669113    1.4701227     2.320407   0.72152249 
   29860   -2.1684933     1.493121    2.1615037   0.72060353 
   29870   -2.1704055     1.510843     2.039501   0.71985817 
   29880   -2.1716315    1.5169701    1.9867085   0.71930776 
   29890    -2.171173    1.5043484     2.034888    0.7189599 
   29900   -2.1711351    1.4734609    2.1766586   0.71880299 
   29910    -2.170399    1.4371342    2.3563612   0.71880794 
   29920   -2.1661725     1.411273    2.5070741   0.71893877 
   29930   -2.1592408    1.4025254     2.595484   0.71916506 
   29940   -2.1461945    1.4103538    2.6264378   0.71946828 
   29950   -2.1298807    1.4268142    2.6279435    0.7198411 
   29960    -2.109556    1.4481087    2.6175989   0.72028203 
   29970   -2.0858169    1.4851971    2.5540614   0.72079339 
   29980   -2.0576793    1.5256482    2.4895222   0.72138606 
   29990   -2.0294739    1.5526772    2.4847537   0.72207089 
   30000   -2.0012792    1.5745103     2.507006   0.72284859 
Loop time of 5.06596 on 8 procs for 30000 steps with 125 atoms

Performance: 511649.907 tau/day, 5921.874 timesteps/s
107.6% CPU use with 1 MPI tasks x 8 OpenMP threads

MPI task timing breakdown:
Section |  min time  |  avg time  |  max time  |%varavg| %total
---------------------------------------------------------------
Pair    | 1.649      | 1.649      | 1.649      |   0.0 | 32.55
Neigh   | 0.0061076  | 0.0061076  | 0.0061076  |   0.0 |  0.12
Comm    | 0.16264    | 0.16264    | 0.16264    |   0.0 |  3.21
Output  | 0.057239   | 0.057239   | 0.057239   |   0.0 |  1.13
Modify  | 3.1759     | 3.1759     | 3.1759     |   0.0 | 62.69
Other   |            | 0.01502    |            |       |  0.30

Nlocal:        125.000 ave         125 max         125 min
Histogram: 1 0 0 0 0 0 0 0 0 0
Nghost:        2115.00 ave        2115 max        2115 min
Histogram: 1 0 0 0 0 0 0 0 0 0
Neighs:        17126.0 ave       17126 max       17126 min
Histogram: 1 0 0 0 0 0 0 0 0 0

Total # of neighbors = 17126
Ave neighs/atom = 137.00800
Neighbor list builds = 90
Dangerous builds = 0

variable avedens equal f_aves[1]
variable avetemp equal f_aves[2]
variable avepress equal f_aves[3]
variable errdens equal sqrt(f_aves[4]-f_aves[1]*f_aves[1])
variable errtemp equal sqrt(f_aves[5]-f_aves[2]*f_aves[2])
variable errpress equal sqrt(f_aves[6]-f_aves[3]*f_aves[3])

print "Averages"
Averages
print "--------"
--------
print "Density: ${avedens}"
Density: 0.756227494818314
print "Stderr: ${errdens}"
Stderr: 0.0192677307602165
print "Temperature: ${avetemp}"
Temperature: 1.50000891438594
print "Stderr: ${errtemp}"
Stderr: 0.11429686247718
print "Pressure: ${avepress}"
Pressure: 3.00483146077559
print "Stderr: ${errpress}"
Stderr: 0.61756685112698
clear # Clear any previous runs
  using 8 OpenMP thread(s) per MPI task

package omp 8 # For parallelisation.
using multi-threaded neighbor list subroutines


### DEFINE SIMULATION BOX GEOMETRY ###
lattice sc 0.8
Lattice spacing in x,y,z = 1.0772173 1.0772173 1.0772173
region box block 0 5 0 5 0 5
create_box 1 box
Created orthogonal box = (0.0000000 0.0000000 0.0000000) to (5.3860867 5.3860867 5.3860867)
  1 by 1 by 1 MPI processor grid
create_atoms 1 box
Created 125 atoms
  create_atoms CPU = 0.000 seconds

### DEFINE PHYSICAL PROPERTIES OF ATOMS ###
mass 1 1.0
pair_style lj/cut/omp 2.5
pair_coeff 1 1 1.0 1.0
neighbor 2.0 bin

### SPECIFY THE REQUIRED THERMODYNAMIC STATE ###
variable T equal 1.75
variable p equal 2
variable timestep equal 0.001

log ${T}_${p}_NpT.log # specify the log file name. Can overwrite if desired
log 1.75_${p}_NpT.log 
log 1.75_2_NpT.log 
