
### SPECIFY THE NUMBER OF PRODUCTION STEPS ###
variable Nprod equal 30000

### ASSIGN ATOMIC VELOCITIES ###
velocity all create ${T} 12345 dist gaussian rot yes mom yes
velocity all create 1.5 12345 dist gaussian rot yes mom yes

### SPECIFY ENSEMBLE ###
timestep ${timestep}
timestep 0.001
fix nve all nve

### THERMODYNAMIC OUTPUT CONTROL ###
thermo_style custom time etotal temp press
thermo 10

### RECORD TRAJECTORY ###
dump traj all custom 1000 traj.dump id x y z

### SPECIFY TIMESTEP ###

### RUN SIMULATION TO MELT CRYSTAL ###
run 10000
Last active /omp style is pair_style lj/cut/omp
Neighbor list info ...
  update every 1 steps, delay 10 steps, check yes
  max neighbors/atom: 2000, page size: 100000
  master list distance cutoff = 4.5
  ghost atom cutoff = 4.5
  binsize = 2.25, bins = 3 3 3
  1 neighbor lists, perpetual/occasional/extra = 1 0 0
  (1) pair lj/cut/omp, perpetual
      attributes: half, newton on, omp
      pair build: half/bin/atomonly/newton/omp
      stencil: half/bin/3d/newton
      bin: standard
Per MPI rank memory allocation (min/avg/max) = 10.63 | 10.63 | 10.63 Mbytes
Time TotEng Temp Press 
           0   -3.0327711          1.5   0.89516323 
        0.01   -3.0327767    1.4651919    1.0889777 
        0.02   -3.0322577    1.3590233    1.6724772 
        0.03   -3.0261046    1.1855361    2.6146636 
        0.04   -3.0166405   0.97474002    3.7432671 
        0.05   -3.0113456   0.79659543    4.6958808 
        0.06   -3.0101721   0.72000906     5.137169 
        0.07   -3.0093121   0.74588903    5.0603772 
        0.08   -3.0077886    0.8211691    4.7150172 
        0.09   -3.0072819   0.89678263    4.3398222 
         0.1   -3.0059698    0.9527566    4.0470411 
        0.11   -3.0062205   0.99236668    3.8295215 
        0.12   -3.0051679    1.0253175    3.6506802 
        0.13   -3.0041171    1.0598351    3.4685834 
        0.14   -3.0054208    1.1012796     3.250748 
        0.15   -3.0052888    1.1510262    2.9925254 
        0.16    -3.002941    1.2081666    2.6965935 
        0.17    -3.002159    1.2712657    2.3625998 
        0.18   -3.0017701    1.3380669    2.0043619 
        0.19   -3.0016509    1.4032993    1.6501762 
         0.2   -3.0012712    1.4582703    1.3465753 
        0.21   -3.0017998    1.4940243    1.1390965 
        0.22   -3.0012803    1.5053161    1.0604004 
        0.23    -2.998925    1.4930853    1.1106118 
        0.24   -2.9987894    1.4646584     1.250096 
        0.25   -2.9999652    1.4287574    1.4383822 
        0.26   -3.0003528    1.3913018    1.6475597 
        0.27    -3.001268    1.3571564    1.8483278 
        0.28   -3.0014016    1.3285053    2.0274199 
        0.29   -3.0013991    1.3043405     2.182892 
         0.3   -3.0025678     1.285705    2.3033996 
        0.31   -3.0013865    1.2802797    2.3574743 
        0.32   -3.0000922    1.2951332    2.3113977 
        0.33   -3.0027252    1.3195553    2.2116736 
        0.34   -3.0029893    1.3331283    2.1659698 
        0.35   -3.0034969    1.3340044    2.1843788 
        0.36   -3.0042877     1.332062    2.2268715 
        0.37   -3.0042912    1.3192368    2.3300331 
        0.38   -3.0044081    1.2935363    2.4976483 
        0.39   -3.0046629    1.2686066    2.6632952 
         0.4   -3.0033574    1.2549156    2.7767443 
        0.41   -3.0031012    1.2559118     2.815438 
        0.42   -3.0041496    1.2678467     2.796775 
        0.43   -3.0040212    1.2840662    2.7575184 
        0.44   -3.0020672    1.2994759    2.7235198 
        0.45    -3.002203    1.3080683    2.7147417 
        0.46   -3.0041539     1.306906    2.7422499 
        0.47   -3.0041503    1.2997685    2.7920434 
        0.48   -3.0050649    1.2907124    2.8381545 
        0.49   -3.0060989    1.2833177    2.8635356 
         0.5   -3.0054446    1.2882474    2.8245008 
        0.51   -3.0044229     1.307087    2.7165321 
        0.52   -3.0048235    1.3207836    2.6273952 
        0.53   -3.0031245    1.3183249    2.6175516 
        0.54   -3.0031204    1.3017098     2.675066 
        0.55    -3.002461    1.2765654    2.7788554 
        0.56   -3.0021906    1.2513101    2.8889247 
        0.57   -3.0027246    1.2329319    2.9721607 
        0.58   -3.0041652     1.215763    3.0494454 
        0.59   -3.0045412      1.19953    3.1187483 
         0.6   -3.0054432     1.199604    3.1039993 
        0.61   -3.0063674    1.2246571    2.9668185 
        0.62    -3.005871    1.2626546    2.7682452 
        0.63   -3.0053577    1.2904581    2.6157649 
        0.64   -3.0048251    1.2993328    2.5518443 
        0.65   -3.0056014    1.2975224    2.5351604 
        0.66   -3.0048101    1.2954723    2.5170426 
        0.67   -3.0055894    1.3041062    2.4399742 
        0.68    -3.005746    1.3262188    2.3002403 
        0.69   -3.0055032    1.3395582     2.207024 
         0.7   -3.0045719     1.328361    2.2400763 
        0.71   -3.0045576    1.3054939    2.3424475 
        0.72   -3.0035011    1.2870125    2.4419518 
        0.73    -3.002858    1.2833408    2.4857064 
        0.74   -3.0031451    1.2843898    2.5153656 
        0.75   -3.0023536    1.2702073    2.6193131 
        0.76    -3.001154    1.2477265    2.7602762 
        0.77   -3.0020626    1.2388861    2.8289925 
        0.78     -3.00207    1.2499654    2.7956291 
        0.79   -3.0023333    1.2744348    2.6851482 
         0.8   -3.0027319    1.3068786    2.5249921 
        0.81   -3.0024833    1.3391091    2.3594732 
        0.82   -3.0035387     1.358779    2.2484046 
        0.83   -3.0019753    1.3563907      2.24624 
        0.84   -3.0012903     1.336783    2.3264258 
        0.85   -3.0001099    1.3307288    2.3536232 
        0.86   -3.0009193    1.3436682    2.3002928 
        0.87   -2.9992269    1.3508336    2.2863728 
        0.88    -2.999347    1.3437844     2.345306 
        0.89   -2.9989464    1.3295415    2.4480994 
         0.9   -2.9971228    1.3141585    2.5645138 
        0.91   -2.9958275    1.2948465    2.6987161 
        0.92   -2.9955646    1.2691983    2.8564154 
        0.93   -2.9946481    1.2436102     3.008072 
        0.94   -2.9947664    1.2264942    3.1083587 
        0.95   -2.9944925    1.2368755    3.0718236 
        0.96   -2.9941429    1.2795199     2.879573 
        0.97   -2.9936266     1.315323    2.7137804 
        0.98   -2.9949198    1.3274088    2.6578819 
        0.99    -2.996089    1.3221082    2.6917479 
           1   -2.9955552    1.3044446    2.7928561 
        1.01   -2.9942308    1.2868823    2.8994288 
        1.02     -2.99411    1.2875715      2.92558 
        1.03   -2.9946662    1.2979565    2.9118666 
        1.04   -2.9952038    1.2878516    2.9964318 
        1.05   -2.9964873    1.2433266     3.237596 
        1.06   -2.9965837    1.1846463    3.5377779 
        1.07    -2.996047    1.1445217    3.7365111 
        1.08   -2.9970822    1.1397594    3.7449539 
        1.09   -2.9972209    1.1768588    3.5389181 
         1.1   -2.9963333    1.2448933    3.1788528 
        1.11   -2.9953141    1.3142588     2.812506 
        1.12   -2.9966256    1.3573815     2.574787 
        1.13   -2.9977934    1.3643209    2.5222513 
        1.14    -2.997259    1.3415699    2.6273521 
        1.15   -2.9977687    1.3037555    2.8125406 
        1.16   -2.9971066    1.2660249    3.0037333 
        1.17   -2.9976237    1.2391822    3.1410019 
        1.18   -2.9971081    1.2272141    3.2063377 
        1.19   -2.9960761    1.2252286    3.2205749 
         1.2   -2.9975188    1.2236291    3.2230859 
        1.21   -2.9977746    1.2176088    3.2415294 
        1.22   -2.9968492    1.2140803    3.2449579 
        1.23   -2.9969818    1.2230058     3.186697 
        1.24   -2.9954222    1.2430856     3.080664 
        1.25   -2.9960792    1.2654453    2.9660522 
        1.26   -2.9973908    1.2827751    2.8840602 
        1.27    -2.995837    1.2864869    2.8815413 
        1.28   -2.9966156    1.2672948    2.9871433 
        1.29    -2.996583    1.2344349    3.1523122 
         1.3   -2.9968245    1.2198705    3.2180356 
        1.31   -2.9967075    1.2425444    3.0927216 
        1.32   -2.9968592    1.2884969    2.8420347 
        1.33   -2.9951795    1.3318737    2.5990528 
        1.34    -2.994665    1.3524725     2.464185 
        1.35   -2.9950404     1.344549    2.4711875 
        1.36   -2.9942316    1.3272218    2.5384833 
        1.37   -2.9955548     1.323377    2.5563512 
        1.38   -2.9951759    1.3223466    2.5741937 
        1.39   -2.9952918    1.3121301    2.6381749 
         1.4   -2.9959319    1.3038555    2.6948905 
        1.41   -2.9958083    1.3084175    2.6950795 
        1.42    -2.995954    1.3179392    2.6730715 
        1.43   -2.9964738    1.3190314    2.6906465 
        1.44   -2.9965977     1.310987    2.7522488 
        1.45   -2.9965995    1.2987067    2.8313003 
        1.46   -2.9972412    1.2839147    2.9111365 
        1.47   -2.9989232     1.278398      2.93261 
        1.48    -2.997757     1.293688    2.8512754 
        1.49   -2.9964668    1.3203882    2.7119722 
         1.5   -2.9949079     1.339712    2.6092369 
        1.51   -2.9946428    1.3384609    2.6065155 
        1.52   -2.9942355    1.3181338    2.6993303 
        1.53   -2.9951328    1.2942882     2.810742 
        1.54   -2.9950103    1.2834343    2.8657257 
        1.55   -2.9954281    1.2812052     2.879801 
        1.56   -2.9953085    1.2663194    2.9499385 
        1.57   -2.9952685    1.2374818    3.0796387 
        1.58   -2.9955327    1.2304812    3.1094816 
        1.59   -2.9958264    1.2447648    3.0441016 
         1.6   -2.9966087    1.2493571    3.0248777 
        1.61   -2.9972439     1.240309    3.0741663 
        1.62   -2.9977502    1.2324584    3.1239325 
        1.63   -2.9981543    1.2398905    3.1080524 
        1.64   -2.9981775    1.2543283    3.0622793 
        1.65   -2.9963435    1.2579759    3.0690802 
        1.66   -2.9976483    1.2503578      3.12539 
        1.67   -2.9968754    1.2332226     3.231738 
        1.68   -2.9968568    1.2019132    3.3991061 
        1.69   -2.9969605    1.1763756    3.5335666 
         1.7   -2.9958108    1.1796149    3.5321825 
        1.71   -2.9967515    1.1915643    3.4793392 
        1.72   -2.9960954    1.1849412    3.5054207 
        1.73   -2.9950243    1.1635435     3.592553 
        1.74   -2.9959223    1.1537055    3.6172149 
        1.75   -2.9967165    1.1717266     3.508355 
        1.76   -2.9958146    1.2109883    3.3007516 
        1.77   -2.9963521     1.257136    3.0614192 
        1.78   -2.9961024    1.2900538    2.8913851 
        1.79   -2.9964824    1.2971666    2.8474804 
         1.8   -2.9971223    1.2875115    2.8879187 
        1.81   -2.9977718    1.2760561    2.9404646 
        1.82   -2.9965969    1.2704652    2.9670968 
        1.83   -2.9975099    1.2737369    2.9435276 
        1.84   -2.9976444    1.2862683    2.8722816 
        1.85   -2.9963452    1.3012049     2.788297 
        1.86   -2.9960825    1.3109936    2.7262191 
        1.87   -2.9966065    1.3159841    2.6893861 
        1.88   -2.9953011     1.315874     2.685289 
        1.89    -2.994384    1.3124612    2.7034212 
         1.9   -2.9949189    1.3067227    2.7384693 
        1.91   -2.9954419    1.2893455    2.8325347 
        1.92   -2.9949058    1.2606426    2.9809203 
        1.93   -2.9955484     1.235823    3.1044928 
        1.94    -2.996197    1.2261812     3.146983 
        1.95   -2.9954149    1.2358581    3.0896831 
        1.96   -2.9964733    1.2604994    2.9510414 
        1.97   -2.9959609    1.2852244     2.811195 
        1.98   -2.9963475    1.2962596    2.7364854 
        1.99   -2.9973762    1.2950831    2.7271523 
           2   -2.9965913    1.2907484    2.7489972 
        2.01   -2.9959476    1.2829052    2.7989522 
        2.02   -2.9972517    1.2640784    2.9034751 
        2.03   -2.9960659    1.2364018    3.0552509 
        2.04   -2.9974966     1.210833    3.1916141 
        2.05   -2.9985438    1.1939443    3.2825321 
        2.06   -2.9982801    1.1864145    3.3223008 
        2.07   -2.9963159    1.1934255    3.2869604 
        2.08   -2.9963429    1.2188649    3.1562967 
        2.09   -2.9966143    1.2414158    3.0332343 
         2.1   -2.9980368    1.2504607    2.9707853 
        2.11   -2.9988315    1.2526383    2.9481646 
        2.12   -2.9994609    1.2409839    2.9944754 
        2.13   -2.9999717    1.2305218    3.0410214 
        2.14   -3.0003827    1.2308542    3.0429389 
        2.15   -3.0002511    1.2278733    3.0622055 
        2.16   -2.9991993    1.2227805     3.095175 
        2.17   -2.9977814    1.2203776    3.1210973 
        2.18   -2.9975281    1.2068787    3.1982471 
        2.19   -2.9976479    1.1774108    3.3465207 
         2.2   -2.9973429    1.1514536    3.4726862 
        2.21   -2.9986643    1.1655821    3.4050127 
        2.22   -2.9975263    1.2057694    3.2115334 
        2.23   -2.9974145    1.2350728    3.0577776 
        2.24   -2.9977842    1.2364877    3.0263461 
        2.25   -2.9977453    1.2360128     3.005319 
        2.26   -2.9989599    1.2639556    2.8599517 
        2.27   -2.9976599    1.2907996    2.7285844 
        2.28   -2.9962178     1.300644    2.6837136 
        2.29   -2.9959535    1.2956879    2.7156777 
         2.3   -2.9962116    1.2800682    2.8027008 
        2.31    -2.995936    1.2601817    2.9088351 
        2.32   -2.9965854    1.2540725    2.9451199 
        2.33   -2.9977901    1.2626618    2.9076426 
        2.34   -2.9992063    1.2622058    2.9034416 
        2.35   -2.9989392    1.2628183    2.8935015 
        2.36   -2.9998609    1.2684058    2.8542019 
        2.37   -3.0002389    1.2739544    2.8074115 
        2.38   -2.9995804    1.2907364     2.704381 
        2.39   -2.9994595    1.3224703    2.5298534 
         2.4   -3.0006418    1.3590089    2.3354128 
        2.41   -2.9990845    1.3896287    2.1849782 
        2.42    -3.000133    1.4053336    2.1176807 
        2.43   -3.0006493    1.4014294    2.1620004 
        2.44   -3.0003809     1.380712    2.3032134 
        2.45   -3.0018135    1.3483044    2.5070298 
        2.46   -3.0012865    1.3095026    2.7454188 
        2.47   -3.0024484    1.2713661    2.9700605 
        2.48   -3.0016505    1.2460385    3.1235849 
        2.49   -3.0000879    1.2457287    3.1464421 
         2.5   -3.0002376     1.265476     3.060008 
        2.51   -3.0009044    1.2855656    2.9613622 
        2.52    -3.000259    1.2920161    2.9235044 
        2.53   -3.0005236    1.2807701     2.964673 
        2.54   -3.0006478    1.2527543    3.0799006 
        2.55    -3.000888    1.2193634    3.2103821 
        2.56   -3.0011311    1.2067674    3.2335962 
        2.57   -3.0004975    1.2321287    3.0754271 
        2.58   -2.9990896    1.2772147    2.8253454 
        2.59   -2.9988324    1.3102407    2.6321525 
         2.6   -3.0001261    1.3221685    2.5429186 
        2.61   -2.9986828    1.3210249    2.5298858 
        2.62    -2.999986    1.3147586    2.5460905 
        2.63   -3.0016809    1.3075007    2.5734539 
        2.64   -3.0007645    1.3016604    2.6038495 
        2.65   -3.0022049    1.3006885    2.6146118 
        2.66   -3.0014386    1.3009563    2.6324752 
        2.67   -3.0017165    1.2865057    2.7260015 
        2.68   -3.0022365    1.2439681    2.9542124 
        2.69   -3.0016804    1.1827889     3.268727 
         2.7   -3.0024328    1.1383755    3.4959522 
        2.71   -3.0019133    1.1414839    3.4938247 
        2.72   -3.0015481     1.189774    3.2706292 
        2.73   -3.0001502    1.2536246    2.9711386 
        2.74   -3.0005618    1.2935882    2.7801372 
        2.75   -3.0014679    1.2877356    2.8045778 
        2.76   -3.0011694    1.2466816    2.9954701 
        2.77   -3.0013912    1.2091292    3.1649157 
        2.78   -3.0010223    1.2109308    3.1457014 
        2.79    -3.000399    1.2349377    3.0129754 
         2.8   -3.0005229    1.2516678     2.904751 
        2.81   -3.0020796     1.260503    2.8330104 
        2.82   -3.0024728    1.2699609    2.7702818 
        2.83   -3.0020886    1.2795801    2.7217198 
        2.84   -3.0014456    1.2813929    2.7249631 
        2.85   -3.0005327    1.2694799    2.8078659 
        2.86   -3.0018379    1.2440412    2.9640252 
        2.87   -3.0006641    1.2062304    3.1894514 
        2.88   -3.0010404    1.1609205    3.4443386 
        2.89   -3.0020683      1.12513    3.6403131 
         2.9   -3.0032414    1.1153312    3.6929402 
        2.91   -3.0023286    1.1354164    3.5828732 
        2.92   -3.0014235    1.1820937     3.325077 
        2.93   -3.0000021    1.2444868    2.9800608 
        2.94   -2.9989726    1.3045859    2.6408654 
        2.95   -2.9991109    1.3446368    2.3982732 
        2.96   -2.9974123    1.3540228    2.3119887 
        2.97   -2.9976561     1.336189    2.3613293 
        2.98   -2.9980253    1.3102209    2.4596843 
        2.99   -2.9968417    1.2994194    2.5011198 
           3   -2.9980343    1.3110472    2.4461515 
        3.01    -2.997404     1.326734    2.3855778 
        3.02   -2.9984496    1.3251681    2.4112086 
        3.03    -2.995689    1.3040434    2.5404313 
        3.04    -2.997236    1.2810012    2.6755699 
        3.05   -2.9986919     1.272013    2.7473775 
        3.06   -2.9998956    1.2629217    2.8176738 
        3.07   -2.9997392    1.2348644    2.9702067 
        3.08   -2.9988018     1.212389    3.0907362 
        3.09   -2.9986911    1.2173569    3.0750436 
         3.1   -3.0015586    1.2358762    2.9804833 
        3.11   -3.0032614    1.2644168    2.8362065 
        3.12   -3.0031555    1.2935144    2.6950841 
        3.13   -3.0022494    1.2993348    2.6705801 
        3.14   -3.0010571    1.2734765    2.8036369 
        3.15   -3.0002422    1.2352688    3.0035839 
        3.16   -3.0002393    1.2156755    3.1240082 
        3.17    -3.000138    1.2157606    3.1544025 
        3.18   -3.0005231     1.207684    3.2121802 
        3.19   -3.0010251    1.1912849    3.2963983 
         3.2   -3.0012735    1.1834109    3.3306429 
        3.21   -3.0012773    1.1952245     3.265081 
        3.22   -3.0033759    1.2230747    3.1158625 
        3.23   -3.0019493     1.255266    2.9506916 
        3.24   -3.0011738    1.2818122    2.8144021 
        3.25   -3.0001352    1.2940188    2.7514398 
        3.26   -2.9996083    1.2885392    2.7751985 
        3.27   -2.9998549    1.2731098    2.8462773 
        3.28   -2.9997242    1.2613238    2.9007159 
        3.29   -3.0009131     1.255934    2.9202312 
         3.3   -3.0014353    1.2474918    2.9487021 
        3.31   -2.9999844    1.2357383     2.989204 
        3.32   -2.9991981    1.2322751    2.9865757 
        3.33   -2.9989522    1.2397824    2.9311096 
        3.34   -2.9997418    1.2451327    2.8837499 
        3.35   -3.0001223    1.2398251    2.8874419 
        3.36   -2.9998412    1.2326317     2.903853 
        3.37   -3.0027064    1.2391803    2.8560256 
        3.38   -3.0029862    1.2626796    2.7391769 
        3.39    -3.003659    1.2858007    2.6289221 
         3.4   -3.0037961    1.2871869    2.6259264 
        3.41    -3.003519    1.2625339    2.7499866 
        3.42   -3.0014128    1.2296631    2.9208727 
        3.43    -3.000889    1.2083797    3.0394067 
        3.44   -2.9989332    1.2037832    3.0821025 
        3.45   -2.9998542    1.2139055    3.0482314 
        3.46   -2.9996059    1.2329882    2.9714936 
        3.47   -2.9996072    1.2494428    2.9052752 
        3.48   -2.9976404    1.2605987    2.8695346 
        3.49   -2.9967288    1.2730011    2.8328902 
         3.5   -2.9968674    1.2840491    2.8067888 
        3.51    -2.997002    1.2847385    2.8306385 
        3.52   -2.9959528      1.27283    2.9125191 
        3.53   -2.9969879    1.2546584    3.0142914 
        3.54   -2.9968497    1.2426115    3.0829273 
        3.55   -2.9979018    1.2449984    3.0773694 
        3.56   -2.9972663    1.2553649    3.0342971 
        3.57   -2.9979176    1.2593666    3.0178176 
        3.58   -2.9983057    1.2573408    3.0335365 
        3.59   -2.9990999     1.252523    3.0679666 
         3.6    -2.998707     1.238141    3.1527626 
        3.61    -2.999093    1.2165939    3.2721699 
        3.62   -2.9989475    1.1965187    3.3862997 
        3.63   -2.9976387    1.1919402    3.4315924 
        3.64   -2.9988402    1.2051405    3.3914678 
        3.65   -2.9987163    1.2133074    3.3709629 
        3.66   -2.9993475    1.2107668    3.3886712 
        3.67   -2.9984254      1.21405    3.3712412 
        3.68   -2.9986879    1.2316147    3.2755717 
        3.69   -3.0000116    1.2583026    3.1303604 
         3.7   -2.9974056    1.2762368    3.0314919 
        3.71   -2.9962244    1.2780501    3.0097504 
        3.72   -2.9972572    1.2690947    3.0403383 
        3.73    -2.995147    1.2638225    3.0637209 
        3.74   -2.9951714     1.281673    2.9845323 
        3.75   -2.9962547    1.3014711    2.9007263 
        3.76   -2.9958585    1.2851063    2.9865107 
        3.77   -2.9954314    1.2366155    3.2170481 
        3.78   -2.9959297    1.1911043    3.4225621 
        3.79   -2.9963045    1.1780694    3.4608295 
         3.8   -2.9954073    1.2122471    3.2664254 
        3.81   -2.9970035    1.2752265    2.9262409 
        3.82   -2.9964964      1.33103     2.625364 
        3.83   -2.9966302    1.3576538    2.4723782 
        3.84   -2.9957027    1.3481753    2.5055149 
        3.85   -2.9959358    1.3181953    2.6467553 
        3.86   -2.9955507    1.2949823    2.7703221 
        3.87   -2.9953167    1.2756275    2.8820305 
        3.88   -2.9966047    1.2426344    3.0525511 
        3.89   -2.9961892    1.2114456    3.2132327 
         3.9   -2.9948911    1.2041335    3.2591556 
        3.91   -2.9955535    1.2156442    3.2061258 
        3.92   -2.9965964    1.2354321    3.1077095 
        3.93   -2.9967276    1.2604385    2.9874963 
        3.94   -2.9967355    1.2859016    2.8734098 
        3.95   -2.9971388    1.2998164    2.8236263 
        3.96    -2.997793    1.2904723    2.8906973 
        3.97   -2.9985608    1.2583901    3.0655746 
        3.98   -2.9990598    1.2195701    3.2660945 
        3.99   -2.9997042    1.1966277     3.381583 
           4   -2.9990689    1.1984499    3.3735712 
        4.01   -2.9988265    1.2100189    3.3126027 
        4.02   -2.9971298    1.2148832    3.2842002 
        4.03   -2.9964838    1.2117814      3.29763 
        4.04   -2.9958423    1.1966929    3.3745189 
        4.05   -2.9968692    1.1656236    3.5268622 
        4.06   -2.9971013    1.1389139    3.6627411 
        4.07   -2.9977605    1.1411326    3.6652348 
        4.08   -2.9975135    1.1685595    3.5494577 
        4.09   -2.9970041    1.2050493    3.3878092 
         4.1   -2.9984538    1.2350023    3.2499026 
        4.11   -2.9996224    1.2454893    3.1980887 
        4.12   -2.9996043    1.2424701    3.2058827 
        4.13   -2.9996039    1.2414256    3.1989938 
        4.14    -2.998426    1.2462664     3.158186 
        4.15   -2.9971194     1.258848    3.0737184 
        4.16   -2.9970052    1.2769321    2.9581927 
        4.17   -2.9974146    1.2834218    2.8954206 
        4.18   -2.9964952    1.2625329    2.9624513 
        4.19   -2.9971207    1.2220529    3.1174704 
         4.2   -2.9967093     1.187834      3.24166 
        4.21   -2.9959174    1.1811889    3.2322662 
        4.22   -2.9971118    1.2089595    3.0564031 
        4.23   -2.9983129    1.2525214    2.8089997 
        4.24    -2.998453    1.2833621    2.6300231 
        4.25   -2.9983143    1.2890149    2.5818236 
        4.26   -2.9983005    1.2751303    2.6399096 
        4.27   -2.9988155     1.255043    2.7399478 
        4.28   -2.9999895    1.2375612     2.835838 
        4.29   -2.9994633    1.2261119     2.909045 
         4.3   -2.9999785    1.2276067     2.918329 
        4.31   -2.9992077    1.2480819    2.8375902 
        4.32   -2.9992276    1.2763226    2.7138461 
        4.33   -2.9980446    1.2953017    2.6288635 
        4.34    -2.997511    1.3072159    2.5739287 
        4.35   -2.9975146    1.3206326    2.5146936 
        4.36   -2.9979167    1.3299535    2.4789637 
        4.37   -2.9984349    1.3245495    2.5155964 
        4.38   -2.9988118    1.3067511    2.6140347 
        4.39   -2.9980187    1.2883899    2.7209189 
         4.4   -2.9980221    1.2764238    2.7998752 
        4.41   -2.9986774    1.2681985    2.8619395 
        4.42   -2.9993245      1.26196    2.9151641 
        4.43   -2.9977533    1.2639821    2.9346341 
        4.44   -2.9976431    1.2753708    2.9102742 
        4.45   -2.9980559    1.2799727    2.9168035 
        4.46   -2.9984514    1.2590079    3.0377227 
        4.47   -2.9986789    1.2162594    3.2492911 
        4.48   -2.9974864    1.1886567    3.3800514 
        4.49    -2.996987    1.1969556    3.3310539 
         4.5   -2.9979185    1.2197846    3.2025301 
        4.51   -2.9989532    1.2354242    3.1047191 
        4.52    -2.998552    1.2450326    3.0434726 
        4.53   -2.9997344    1.2529503    2.9969195 
        4.54   -2.9985603    1.2505677    3.0065834 
        4.55   -2.9984153    1.2362811    3.0699642 
        4.56   -2.9977537    1.2230621     3.128885 
        4.57   -2.9986685    1.2192526    3.1416394 
        4.58   -2.9998493    1.2234445    3.1182944 
        4.59   -3.0002535    1.2285767     3.096168 
         4.6   -3.0009119    1.2221705    3.1331992 
        4.61   -3.0012931    1.1982261    3.2591659 
        4.62   -3.0028397    1.1690248    3.4157969 
        4.63   -3.0023187    1.1541703     3.517555 
        4.64    -3.001945    1.1548277    3.5507423 
        4.65   -3.0026041    1.1577832    3.5687737 
        4.66    -3.001559    1.1572001    3.6004091 
        4.67   -3.0005152    1.1567755     3.625666 
        4.68   -3.0003885    1.1611387    3.6212047 
        4.69   -3.0009119    1.1703713    3.5838013 
         4.7   -3.0012931    1.1848073    3.5090987 
        4.71   -3.0015558     1.209237    3.3742454 
        4.72   -3.0027342    1.2388754    3.2004434 
        4.73   -3.0020839    1.2669224    3.0270473 
        4.74   -3.0009021    1.2905418    2.8698769 
        4.75   -3.0014178    1.3131882    2.7138776 
        4.76   -3.0003738    1.3382649    2.5521737 
        4.77   -3.0008983    1.3632743    2.3942317 
        4.78   -3.0014242    1.3835395      2.26858 
        4.79   -3.0011736    1.3915458    2.2150722 
         4.8    -3.001312    1.3760639    2.2832061 
        4.81   -3.0011681    1.3325989    2.4880713 
        4.82   -3.0014013     1.276891    2.7465493 
        4.83   -3.0025618    1.2383442    2.9141218 
        4.84   -3.0021797     1.234127    2.9113587 
        4.85   -3.0025847    1.2578529    2.7651129 
        4.86   -3.0015488    1.2951462    2.5529324 
        4.87   -3.0022151    1.3340588    2.3361047 
        4.88   -3.0013068    1.3609599     2.190926 
        4.89   -3.0005257    1.3679825    2.1557639 
         4.9    -2.999349    1.3529904    2.2407991 
        4.91   -2.9995982    1.3208992    2.4158025 
        4.92   -3.0001165    1.2831163    2.6243081 
        4.93   -2.9995985     1.245348    2.8350248 
        4.94   -3.0002454    1.2089654    3.0303343 
        4.95   -3.0000971    1.1842976    3.1604095 
        4.96   -2.9991861    1.1875804    3.1506894 
        4.97   -2.9988162    1.2151547    3.0196053 
        4.98   -2.9990948    1.2431748    2.8815569 
        4.99   -2.9981726    1.2526085     2.831656 
           5   -2.9984115    1.2474615    2.8500799 
        5.01   -2.9991853     1.246631    2.8504502 
        5.02   -2.9993184    1.2598458    2.7869216 
        5.03   -2.9980249    1.2844671    2.6724355 
        5.04   -2.9977746    1.3111021    2.5493125 
        5.05   -2.9979143    1.3274477    2.4793237 
        5.06   -2.9975226    1.3239707    2.5090314 
        5.07   -2.9954153    1.3031952     2.626037 
        5.08   -2.9951392    1.2849426    2.7295438 
        5.09   -2.9954085    1.2852094    2.7442943 
         5.1    -2.994771    1.2978861    2.6982952 
        5.11    -2.996604    1.3074015    2.6581443 
        5.12   -2.9962079     1.306358    2.6678016 
        5.13   -2.9973726    1.2982808    2.7066845 
        5.14   -2.9978825    1.2914765    2.7397737 
        5.15   -2.9965863    1.2940952    2.7318589 
        5.16   -2.9975114    1.2988125    2.7089825 
        5.17   -2.9973701     1.296911    2.7143278 
        5.18   -2.9987995    1.2950345    2.7126164 
        5.19   -2.9991962    1.2977233    2.6865315 
         5.2   -2.9986743    1.3025443    2.6483583 
        5.21   -2.9988105    1.3081797    2.6061852 
        5.22   -2.9987029    1.3090794      2.58983 
        5.23    -2.998412    1.2958868    2.6382397 
        5.24   -2.9977431    1.3032895    2.5973726 
        5.25   -2.9979493    1.3403391    2.4321531 
        5.26   -2.9983395    1.3425726    2.4368952 
        5.27    -2.998441    1.3017011    2.6554224 
        5.28   -2.9977726    1.2432427    2.9699738 
        5.29   -2.9973712    1.1880925    3.2726083 
         5.3    -2.997223    1.1526051    3.4765842 
        5.31   -2.9963132     1.156419    3.4882104 
        5.32   -2.9966048    1.1952591    3.3238009 
        5.33    -2.996357    1.2359669    3.1401117 
        5.34   -2.9947798    1.2598845    3.0294529 
        5.35   -2.9959517    1.2697171    2.9783219 
        5.36    -2.996207    1.2661415      2.99102 
        5.37   -2.9972377    1.2524757    3.0507074 
        5.38   -2.9969839    1.2376663    3.1214102 
        5.39   -2.9963439     1.218359    3.2152245 
         5.4   -2.9960647    1.1871343    3.3582899 
        5.41   -2.9948527    1.1636005    3.4567847 
        5.42   -2.9951226    1.1810423    3.3547935 
        5.43   -2.9950314    1.2298951    3.1029621 
        5.44   -2.9967463    1.2691892    2.8943879 
        5.45   -2.9959627    1.2742385    2.8600239 
        5.46   -2.9965951    1.2435726    3.0033925 
        5.47   -2.9964295    1.1994063    3.2219445 
        5.48   -2.9966857    1.1744847     3.358583 
        5.49   -2.9964436    1.1734172    3.3872986 
         5.5   -2.9952748    1.1810839    3.3735114 
        5.51   -2.9943594    1.1909992      3.34356 
        5.52   -2.9938296    1.2054674    3.2855573 
        5.53   -2.9935678    1.2298086    3.1759771 
        5.54   -2.9930571    1.2641764    3.0192282 
        5.55   -2.9941141    1.2978106    2.8687415 
        5.56   -2.9929474    1.3162591    2.8033561 
        5.57   -2.9922925    1.3120797    2.8546219 
        5.58   -2.9920177    1.2890889    2.9994799 
        5.59   -2.9931659     1.264154    3.1484432 
         5.6   -2.9934206    1.2634488    3.1783032 
        5.61   -2.9934518    1.2897177     3.073552 
        5.62   -2.9941212     1.314553    2.9655864 
        5.63   -2.9948986    1.3181693    2.9529109 
        5.64   -2.9950168    1.3019151    3.0363309 
        5.65   -2.9951324    1.2779223    3.1605355 
        5.66   -2.9964406    1.2609178    3.2569267 
        5.67   -2.9959422    1.2494793    3.3370643 
        5.68   -2.9963315    1.2270067    3.4699603 
        5.69   -2.9976229    1.1949345    3.6460177 
         5.7   -2.9974894    1.1686527    3.7945794 
        5.71   -2.9965851    1.1535892    3.8847268 
        5.72   -2.9967136    1.1435003    3.9372115 
        5.73   -2.9967049     1.139036    3.9476848 
        5.74   -2.9985234    1.1493143    3.8692768 
        5.75   -2.9994349    1.1830868    3.6672908 
        5.76   -2.9982833    1.2388997    3.3561497 
        5.77   -2.9996115    1.2930251    3.0442385 
        5.78   -2.9997369    1.3226984      2.84842 
        5.79   -2.9988206    1.3298078    2.7660167 
         5.8   -2.9992163    1.3201761    2.7679375 
        5.81    -2.998016    1.2973711    2.8390568 
        5.82    -2.996315    1.2845232    2.8701363 
        5.83   -2.9961964    1.2896667    2.8170869 
        5.84   -2.9964566    1.3024163    2.7253514 
        5.85   -2.9963375    1.3174508    2.6219597 
        5.86   -2.9958235    1.3217713    2.5670999 
        5.87   -2.9958172    1.3060356    2.6016914 
        5.88   -2.9957992    1.2752551    2.7010705 
        5.89   -2.9960409    1.2469711    2.7803645 
         5.9   -2.9964203     1.242839    2.7388199 
        5.91   -2.9961734    1.2726261    2.5359241 
        5.92    -2.998548     1.320905    2.2442016 
        5.93   -2.9994745    1.3619523     1.997246 
        5.94   -2.9973822     1.381346     1.872003 
        5.95   -2.9985475    1.3799025    1.8577954 
        5.96   -2.9985358    1.3675407     1.913554 
        5.97   -2.9994464    1.3561029    1.9762284 
        5.98   -2.9984074    1.3511194    2.0198772 
        5.99   -2.9986718    1.3507615    2.0453409 
           6   -2.9998717    1.3508115    2.0753843 
        6.01   -3.0002725    1.3298963    2.2104794 
        6.02   -2.9997194    1.2801275    2.4838359 
        6.03   -2.9999536    1.2300885    2.7590002 
        6.04   -3.0003577      1.20655    2.9100558 
        6.05    -2.999327    1.2029706    2.9641999 
        6.06   -2.9988001    1.2076522    2.9711775 
        6.07   -2.9994556    1.2216875    2.9277679 
        6.08   -2.9991895    1.2432016    2.8458993 
        6.09   -2.9977614    1.2740603    2.7200783 
         6.1   -2.9972597    1.3033463     2.600745 
        6.11   -2.9965992    1.3116691    2.5823314 
        6.12    -2.997766    1.3014808    2.6564367 
        6.13   -2.9980209    1.2815684    2.7882708 
        6.14   -2.9974822    1.2608312    2.9331909 
        6.15   -2.9970974    1.2517897    3.0284869 
        6.16   -2.9981551    1.2473359    3.0987608 
        6.17   -2.9998495    1.2345467    3.1996292 
        6.18   -3.0006256    1.2175491    3.3142992 
        6.19   -3.0014135    1.2059896    3.3986603 
         6.2   -3.0001135    1.1994828    3.4584892 
        6.21   -3.0003655    1.1994144    3.4826986 
        6.22   -2.9996009    1.2111352    3.4533735 
        6.23   -2.9990898    1.2173007    3.4439928 
        6.24   -2.9988043    1.2084296    3.4926151 
        6.25   -2.9983995    1.2037297    3.5090932 
        6.26   -2.9990553    1.2161668    3.4294743 
        6.27   -2.9976281    1.2410771    3.2802662 
        6.28     -2.99921    1.2661137     3.115131 
        6.29   -2.9993431    1.2763983    3.0162107 
         6.3   -3.0001152    1.2695291    2.9976375 
        6.31   -2.9991897    1.2567941    3.0151879 
        6.32   -2.9989224    1.2548443    2.9896925 
        6.33   -2.9977637    1.2682955    2.9013049 
        6.34   -2.9998589    1.2834566    2.8038561 
        6.35   -2.9998679    1.2900211    2.7547001 
        6.36   -2.9993437    1.2772929    2.8001119 
        6.37    -2.998537    1.2479584    2.9247096 
        6.38   -2.9982684    1.2248497    3.0198778 
        6.39   -2.9965657    1.2212005    3.0243692 
         6.4   -2.9968372    1.2393047    2.9234959 
        6.41   -2.9972368    1.2664469    2.7832288 
        6.42   -2.9978844    1.2900268    2.6657957 
        6.43   -2.9981411     1.310407    2.5741157 
        6.44   -2.9984051    1.3283477    2.5041432 
        6.45   -2.9989314    1.3405206    2.4683651 
        6.46   -2.9991989     1.343434    2.4799753 
        6.47   -2.9994571    1.3351928    2.5422439 
        6.48   -2.9997033    1.3201972    2.6284863 
        6.49   -2.9985137    1.3114608    2.6751234 
         6.5   -2.9983849    1.3229412    2.6115198 
        6.51   -2.9978856    1.3539473    2.4458821 
        6.52   -2.9981627    1.3852553    2.2708391 
        6.53   -2.9982893    1.4010792    2.1684364 
        6.54   -2.9984149    1.4030416    2.1386794 
        6.55   -2.9999893    1.3958366    2.1616605 
        6.56   -2.9997385    1.3746284    2.2635659 
        6.57   -3.0002576    1.3343736    2.4579367 
        6.58   -3.0003555     1.288701     2.677191 
        6.59   -3.0002374    1.2687852    2.7754394 
         6.6   -3.0006441    1.2675862     2.778598 
        6.61   -3.0012818    1.2683099    2.7628017 
        6.62   -3.0020584     1.277157    2.7044933 
        6.63   -3.0024605    1.2960406     2.600202 
        6.64   -3.0015549    1.3133906    2.5078534 
        6.65   -3.0019421    1.3209513    2.4646774 
        6.66   -3.0024591    1.3225746    2.4574301 
        6.67   -3.0033767    1.3240276     2.459775 
        6.68   -3.0035127    1.3241592    2.4772992 
        6.69   -3.0031242    1.3180645    2.5291042 
         6.7   -3.0027251    1.3025564    2.6238641 
        6.71   -3.0036247    1.2848597    2.7212947 
        6.72   -3.0025783    1.2775764    2.7668392 
        6.73   -3.0018048    1.2811525    2.7562594 
        6.74   -3.0024637    1.2855178    2.7375434 
        6.75   -3.0018066    1.2841077    2.7484087 
        6.76   -3.0044129    1.2792856    2.7714801 
        6.77    -3.003373    1.2760929    2.7927485 
        6.78    -3.003377    1.2750145    2.7996675 
        6.79   -3.0027233    1.2742041    2.8020283 
         6.8   -3.0029794    1.2749343    2.7924823 
        6.81    -3.002721    1.2800261    2.7635569 
        6.82   -3.0027308    1.2842027    2.7408281 
        6.83   -3.0016909    1.2775281    2.7729712 
        6.84   -3.0005133    1.2551376    2.8801402 
        6.85   -3.0003668    1.2222366    3.0337669 
        6.86    -2.999835    1.1938473    3.1634675 
        6.87   -2.9981342    1.1843533    3.2010659 
        6.88   -2.9990554    1.1975768    3.1215335 
        6.89   -2.9984167    1.2246835    2.9735763 
         6.9   -2.9985515     1.250851    2.8248638 
        6.91   -2.9986804    1.2683137    2.7161867 
        6.92    -2.999332    1.2765722    2.6516406 
        6.93   -2.9997163    1.2782823    2.6205727 
        6.94   -2.9993162    1.2826061    2.5828175 
        6.95   -2.9984194    1.2952852    2.5140195 
        6.96   -2.9996161     1.300524    2.4826917 
        6.97   -2.9989528    1.2800476    2.5770018 
        6.98   -2.9997011    1.2450924    2.7389953 
        6.99   -2.9987829    1.2290895    2.8219953 
           7   -3.0003696    1.2386546    2.7879991 
        7.01   -2.9993442    1.2520378    2.7419776 
        7.02   -2.9985524    1.2503262    2.7654552 
        7.03   -2.9989177    1.2389949    2.8341773 
        7.04   -2.9981252    1.2416567    2.8483863 
        7.05   -2.9986695    1.2642737     2.779731 
        7.06   -3.0002598    1.2862566    2.7234297 
        7.07   -2.9996039    1.2854068    2.7851305 
        7.08   -2.9974976    1.2638729    2.9514394 
        7.09   -2.9969674    1.2377778    3.1389567 
         7.1   -2.9964426     1.216963    3.2988568 
        7.11   -2.9968354    1.2051694    3.4084355 
        7.12   -2.9981468    1.2001844    3.4760164 
        7.13   -2.9984049    1.1972159    3.5260518 
        7.14   -2.9989249    1.1986637    3.5467009 
        7.15    -2.999325    1.2072757    3.5286598 
        7.16   -3.0006353    1.2168952    3.5007725 
        7.17    -2.998942    1.2197206    3.5067086 
        7.18   -2.9997258    1.2117561    3.5551569 
        7.19   -2.9999757    1.1949055    3.6370683 
         7.2   -2.9986487    1.1817873    3.6898747 
        7.21   -2.9989072    1.1919542    3.6164307 
        7.22   -2.9985385    1.2268319     3.415247 
        7.23   -2.9980305    1.2657867    3.1842224 
        7.24   -2.9959407    1.2935648    3.0019823 
        7.25   -2.9971086    1.3103493    2.8660941 
        7.26   -2.9965874    1.3232304    2.7562343 
        7.27    -2.997121     1.332326    2.6697128 
        7.28   -2.9986917    1.3290031    2.6461802 
        7.29   -2.9990794    1.3108141     2.700319 
         7.3   -2.9995889    1.2867466    2.7883597 
        7.31   -2.9995825    1.2741799     2.831858 
        7.32   -3.0009076     1.283521    2.7823447 
        7.33   -3.0014637    1.2954334    2.7334038 
        7.34    -3.000813    1.2786857    2.8290563 
        7.35   -3.0026167    1.2289848    3.0813802 
        7.36   -3.0024599    1.1688016    3.3871667 
        7.37   -3.0023074    1.1263137     3.603038 
        7.38   -3.0010006    1.1247273    3.6174312 
        7.39   -3.0001155    1.1630896    3.4311748 
         7.4   -2.9996114    1.2138363    3.1739209 
        7.41   -3.0001339    1.2547695    2.9545108 
        7.42   -2.9990882    1.2796354    2.8149619 
        7.43   -2.9976528    1.2873796      2.76364 
        7.44   -2.9979059    1.2787948    2.7940953 
        7.45   -2.9978893    1.2639278    2.8610952 
        7.46    -2.998408    1.2597626     2.883259 
        7.47   -2.9998525    1.2694624    2.8438167 
        7.48   -2.9998591    1.2849861    2.7850155 
        7.49   -2.9994849    1.2979923    2.7481697 
         7.5   -2.9997585     1.293471    2.8023526 
        7.51   -2.9990968    1.2601617    2.9977647 
        7.52   -2.9988009    1.2086749      3.27414 
        7.53   -2.9986375    1.1760337    3.4534791 
        7.54   -2.9990521    1.1908913    3.3996232 
        7.55   -2.9979031    1.2317271     3.211806 
        7.56   -2.9979056    1.2679365    3.0289663 
        7.57   -2.9981567    1.2927267    2.8896948 
        7.58   -2.9973698     1.312354     2.771371 
        7.59   -2.9964563    1.3301894    2.6590401 
         7.6   -2.9964548    1.3460341    2.5546054 
        7.61    -2.996457    1.3601924    2.4626911 
        7.62   -2.9971164    1.3692385     2.402326 
        7.63   -2.9969925    1.3666069    2.4091944 
        7.64   -2.9973807    1.3492592    2.4970727 
        7.65   -2.9968572    1.3210285    2.6510699 
        7.66   -2.9979065    1.2852292    2.8487435 
        7.67   -2.9978983    1.2419227    3.0862692 
        7.68   -2.9993183    1.2049711    3.2884856 
        7.69   -2.9981596    1.1894269    3.3872701 
         7.7   -2.9994622    1.1848012    3.4160979 
        7.71   -2.9989309    1.1913706    3.3812213 
        7.72   -2.9994664    1.2129181    3.2635737 
        7.73   -3.0002509    1.2356292    3.1270265 
        7.74   -3.0006252    1.2561542    2.9898234 
        7.75   -3.0002397    1.2874788    2.8007586 
        7.76   -3.0010581    1.3239044    2.5908016 
        7.77   -3.0008005    1.3344973    2.5076652 
        7.78   -3.0016734    1.3154593    2.5667266 
        7.79   -3.0002166    1.3041359    2.6057621 
         7.8   -3.0007786    1.3184205    2.5393569 
        7.81   -3.0008066    1.3237962    2.5289989 
        7.82   -3.0010589    1.2936753    2.6937539 
        7.83   -2.9999708    1.2412787    2.9693668 
        7.84   -2.9989048    1.2090414    3.1514479 
        7.85   -2.9981464    1.2179957    3.1360683 
        7.86   -2.9981624    1.2478838    3.0110359 
        7.87   -2.9993474     1.277329    2.8770686 
        7.88   -3.0005252    1.2928991    2.8010524 
        7.89   -3.0014223    1.2930254    2.7913484 
         7.9   -2.9999864    1.2911026    2.7915827 
        7.91   -2.9981639    1.2872225    2.7980151 
        7.92   -2.9981499    1.2772214    2.8255793 
        7.93   -2.9981393    1.2734208    2.8223435 
        7.94   -2.9974907    1.2841795    2.7518836 
        7.95   -2.9973744    1.3036673    2.6409296 
        7.96   -2.9976561    1.3163129    2.5656481 
        7.97   -2.9975202    1.3049625     2.608286 
        7.98   -2.9983971    1.2791648    2.7229141 
        7.99   -2.9982716    1.2724184    2.7595048 
           8   -2.9973865    1.2852704     2.710153 
        8.01    -2.996992    1.2933729    2.6786973 
        8.02   -2.9967176    1.2951809    2.6736878 
        8.03   -2.9978913    1.3002844    2.6512749 
        8.04   -2.9980199    1.3097429     2.611207 
        8.05   -2.9989384    1.3216115    2.5607423 
        8.06   -2.9981672    1.3273032    2.5434811 
        8.07   -2.9976456    1.3158668    2.6038392 
        8.08   -2.9984149    1.2890044    2.7283967 
        8.09   -2.9994385    1.2620918    2.8453431 
         8.1   -3.0002219    1.2536496    2.8709729 
        8.11   -3.0002313    1.2658927    2.7991141 
        8.12   -2.9994622    1.2872128    2.6875032 
        8.13   -2.9996017    1.3022199    2.6078466 
        8.14   -2.9998565    1.3007744    2.6087694 
        8.15   -2.9990552    1.2880701    2.6669327 
        8.16   -2.9981282      1.28025    2.7037994 
        8.17   -2.9982648    1.2905141    2.6547466 
        8.18   -2.9968469    1.3142682    2.5449778 
        8.19   -2.9964697    1.3340797    2.4536588 
         8.2   -2.9966031    1.3359361    2.4520049 
        8.21   -2.9967306    1.3159141     2.563211 
        8.22   -2.9972442    1.2800804    2.7579235 
        8.23    -2.997488    1.2413972    2.9716057 
        8.24    -2.998784    1.2188743    3.1084404 
        8.25   -2.9978887    1.2226185    3.1245929 
        8.26   -2.9972583    1.2396519    3.0761106 
        8.27   -2.9975291    1.2484798    3.0622088 
        8.28   -2.9983003    1.2416653    3.1185196 
        8.29   -2.9966022     1.230068    3.2006941 
         8.3    -2.996735    1.2166246    3.2855653 
        8.31   -2.9963274    1.2034668    3.3637759 
        8.32   -2.9961945    1.2026816    3.3780481 
        8.33   -2.9972469    1.2157018    3.3196425 
        8.34   -2.9983017    1.2332561    3.2329017 
        8.35   -2.9982993    1.2456482    3.1640823 
        8.36    -2.999854    1.2533725    3.1079119 
        8.37   -3.0006394     1.262644     3.042334 
        8.38   -3.0027363    1.2692645     2.985189 
        8.39   -3.0023412     1.266169    2.9764664 
         8.4   -3.0011596    1.2550441    3.0064324 
        8.41   -3.0027186    1.2432155    3.0345638 
        8.42   -3.0008851    1.2402961     3.024544 
        8.43   -3.0014125    1.2526166    2.9377015 
        8.44   -3.0005145    1.2747244    2.8069162 
        8.45   -2.9997391    1.2908987    2.7051574 
        8.46   -2.9996035     1.291395    2.6804347 
        8.47    -3.000248    1.2808752    2.7142222 
        8.48    -3.000772    1.2673424    2.7702736 
        8.49   -3.0011612    1.2535157    2.8303814 
         8.5   -3.0007586    1.2443465    2.8674084 
        8.51   -3.0006193    1.2516821    2.8250831 
        8.52   -3.0006373    1.2807823     2.685219 
        8.53   -3.0007985    1.3124854    2.5440159 
        8.54   -3.0001603    1.3156462    2.5515483 
        8.55   -2.9981823    1.2778021    2.7650068 
        8.56   -2.9991849     1.222781     3.060532 
        8.57   -2.9999643     1.193928    3.2358222 
        8.58   -2.9988311    1.1966477     3.259201 
        8.59   -3.0009215       1.1972    3.2697153 
         8.6   -3.0005039    1.1930953    3.2919549 
        8.61   -3.0010411    1.2015299    3.2494292 
        8.62   -3.0007866    1.2092575     3.205349 
        8.63   -3.0006409    1.2066014     3.202163 
        8.64   -3.0012764    1.2075244      3.17686 
        8.65   -3.0007727    1.2267849    3.0667676 
        8.66   -3.0007753    1.2515148    2.9264601 
        8.67   -3.0027428    1.2733363    2.7956635 
        8.68   -3.0018476    1.2795977    2.7439796 
        8.69   -2.9999885    1.2584251    2.8208957 
         8.7   -2.9995641    1.2388387    2.8890189 
        8.71   -2.9986769    1.2489056    2.8237442 
        8.72   -2.9981848    1.2661513    2.7260702 
        8.73   -2.9983141    1.2605766    2.7359976 
        8.74   -2.9973707    1.2335902    2.8536847 
        8.75   -2.9970899    1.2146796    2.9436271 
        8.76   -2.9959328    1.2245602    2.9135138 
        8.77   -2.9960809    1.2467524    2.8309638 
        8.78   -2.9952926    1.2620173    2.7860091 
        8.79   -2.9955587    1.2690258    2.7836653 
         8.8   -2.9971271    1.2626584    2.8453962 
        8.81    -2.996322    1.2445831    2.9658929 
        8.82   -2.9967076    1.2355418    3.0440613 
        8.83   -2.9981637    1.2421521    3.0478828 
        8.84    -2.998941    1.2472677    3.0539964 
        8.85   -2.9982835    1.2519585     3.060674 
        8.86   -2.9994705    1.2599029     3.049811 
        8.87   -2.9993481    1.2598043    3.0789001 
        8.88   -2.9993343      1.24585    3.1706377 
        8.89   -2.9999663    1.2321023    3.2563769 
         8.9   -3.0008804    1.2378296    3.2449273 
        8.91   -2.9999746    1.2645566     3.130246 
        8.92   -3.0018126    1.3020443    2.9548865 
        8.93   -3.0003908    1.3375341    2.7946897 
        8.94   -2.9996217    1.3557843    2.7220299 
        8.95   -2.9981954    1.3422673     2.810319 
        8.96     -2.99831    1.2929983     3.069712 
        8.97   -2.9978602    1.2330544    3.3765569 
        8.98   -2.9981238    1.2129202    3.4893878 
        8.99   -2.9986861    1.2313644    3.4094638 
           9   -2.9984294    1.2492691    3.3197328 
        9.01   -2.9981594    1.2536196    3.2876045 
        9.02    -2.998675    1.2481413    3.2994711 
        9.03   -2.9997174    1.2389526    3.3263773 
        9.04    -2.999062    1.2328994     3.335729 
        9.05   -2.9986636    1.2371052    3.2857967 
        9.06   -2.9970973    1.2601303    3.1371376 
        9.07   -2.9958111    1.2998376     2.901315 
        9.08    -2.996095    1.3347556    2.6837756 
        9.09   -2.9968857    1.3415703    2.6029228 
         9.1   -2.9968721    1.3135335    2.6956121 
        9.11    -2.997631      1.26627      2.88428 
        9.12   -2.9982658    1.2243455    3.0493595 
        9.13   -2.9987791    1.2070467    3.0946831 
        9.14   -2.9990514    1.2219962    2.9842405 
        9.15   -2.9974956     1.258879    2.7721986 
        9.16    -2.996854     1.301613    2.5368104 
        9.17   -2.9975149    1.3334497    2.3627759 
        9.18   -2.9979032    1.3423217    2.3128074 
        9.19   -2.9986793    1.3285707    2.3859847 
         9.2   -2.9965848    1.2997965    2.5501789 
        9.21   -2.9968369    1.2655989    2.7465334 
        9.22    -2.996832     1.237787    2.9174772 
        9.23   -2.9957988    1.2217228    3.0331237 
        9.24   -2.9952769    1.2107767    3.1155825 
        9.25   -2.9957897    1.2054256    3.1611802 
        9.26   -2.9956626    1.2109229    3.1515568 
        9.27   -2.9938443     1.222209    3.1141337 
        9.28   -2.9937155    1.2305823    3.0858456 
        9.29   -2.9946359    1.2325974    3.0864038 
         9.3    -2.995952    1.2239316    3.1370322 
        9.31   -2.9954195    1.2009777    3.2537973 
        9.32   -2.9955197    1.1803998    3.3524738 
        9.33   -2.9956522    1.1897467    3.3078842 
        9.34   -2.9952846     1.226926    3.1321293 
        9.35   -2.9954291    1.2675114     2.940017 
        9.36   -2.9956995    1.2923405    2.8260611 
        9.37    -2.999095    1.2917186    2.8317031 
        9.38   -2.9985539    1.2667158    2.9584856 
        9.39   -2.9970852    1.2384375    3.0979214 
         9.4   -2.9983839    1.2379652    3.0984857 
        9.41   -2.9972365    1.2690783    2.9508379 
        9.42   -2.9972488    1.3056747    2.7704621 
        9.43   -2.9978978    1.3294048    2.6481214 
        9.44   -2.9975029    1.3377373    2.6042194 
        9.45   -2.9982809    1.3305603     2.636879 
        9.46   -2.9972268    1.3129014    2.7261809 
        9.47   -2.9978721    1.2953498    2.8147972 
        9.48   -2.9983906    1.2870981    2.8599953 
        9.49   -2.9978715    1.2939977    2.8352362 
         9.5   -2.9984089    1.3127145     2.752979 
        9.51   -2.9988057    1.3298545    2.6764101 
        9.52   -2.9989307    1.3386233    2.6374635 
        9.53   -2.9997109    1.3424114    2.6196025 
        9.54   -3.0002296    1.3460136    2.6016535 
        9.55    -3.001276    1.3519427    2.5707076 
        9.56   -3.0019322    1.3586029    2.5365302 
        9.57   -3.0011537    1.3605321    2.5271203 
        9.58   -3.0023359    1.3524052    2.5626228 
        9.59     -3.00247    1.3295754    2.6681967 
         9.6   -3.0015337    1.2943437    2.8289954 
        9.61   -3.0008553    1.2677442    2.9437998 
        9.62   -3.0006072    1.2706816    2.9175407 
        9.63   -3.0002372    1.2937955    2.7966891 
        9.64   -3.0011598    1.3164412    2.6790433 
        9.65   -2.9982901    1.3293133    2.6221148 
        9.66   -2.9984236    1.3319793    2.6207058 
        9.67   -2.9969876    1.3226596    2.6891199 
        9.68   -2.9959328    1.3028861    2.8131954 
        9.69   -2.9950151    1.2817215    2.9476382 
         9.7   -2.9947568    1.2650032    3.0601153 
        9.71   -2.9958098    1.2509909    3.1528657 
        9.72   -2.9968526    1.2356257    3.2423791 
        9.73   -2.9969772    1.2227635      3.31055 
        9.74   -2.9976246     1.220484    3.3183399 
        9.75   -2.9978809    1.2351654    3.2404203 
        9.76    -2.996975    1.2673082    3.0792072 
        9.77   -2.9962013    1.3055773    2.8876262 
        9.78    -2.995946    1.3352548    2.7357126 
        9.79   -2.9972461    1.3502663    2.6527083 
         9.8   -2.9980299     1.354039    2.6290209 
        9.81   -2.9971267    1.3468553    2.6660442 
        9.82   -2.9956939    1.3228274    2.7872745 
        9.83   -2.9965921    1.2840767     2.975527 
        9.84   -2.9981444    1.2457797    3.1602742 
        9.85   -2.9991849    1.2220585    3.2739068 
        9.86   -2.9993126     1.219425    3.2836361 
        9.87   -3.0003684    1.2402892     3.177123 
        9.88   -2.9994851    1.2723765    3.0191635 
        9.89   -2.9989769    1.2886026    2.9324639 
         9.9   -2.9994863    1.2754417    2.9779092 
        9.91   -2.9997151    1.2491017    3.0815414 
        9.92   -2.9991894     1.239988    3.1042304 
        9.93   -2.9986979    1.2503882     3.034091 
        9.94   -3.0001408    1.2520551    2.9969422 
        9.95   -2.9997289    1.2349596    3.0460355 
        9.96   -3.0002239    1.2159052    3.0997532 
        9.97   -3.0003519     1.219092    3.0470151 
        9.98    -3.001405    1.2523771    2.8468446 
        9.99    -3.000895    1.3070298    2.5437925 
          10   -3.0022175     1.367947    2.2081586 
Loop time of 0.801336 on 8 procs for 10000 steps with 125 atoms

Performance: 1078199.340 tau/day, 12479.159 timesteps/s
237.9% CPU use with 1 MPI tasks x 8 OpenMP threads

MPI task timing breakdown:
Section |  min time  |  avg time  |  max time  |%varavg| %total
---------------------------------------------------------------
Pair    | 0.46816    | 0.46816    | 0.46816    |   0.0 | 58.42
Neigh   | 0.00099587 | 0.00099587 | 0.00099587 |   0.0 |  0.12
Comm    | 0.047915   | 0.047915   | 0.047915   |   0.0 |  5.98
Output  | 0.023967   | 0.023967   | 0.023967   |   0.0 |  2.99
Modify  | 0.2573     | 0.2573     | 0.2573     |   0.0 | 32.11
Other   |            | 0.002993   |            |       |  0.37

Nlocal:        125.000 ave         125 max         125 min
Histogram: 1 0 0 0 0 0 0 0 0 0
Nghost:        2227.00 ave        2227 max        2227 min
Histogram: 1 0 0 0 0 0 0 0 0 0
Neighs:        19064.0 ave       19064 max       19064 min
Histogram: 1 0 0 0 0 0 0 0 0 0

Total # of neighbors = 19064
Ave neighs/atom = 152.51200
Neighbor list builds = 23
Dangerous builds = 0
unfix nve
reset_timestep 0

### BRING SYSTEM TO REQUIRED STATE ###
variable tdamp equal ${timestep}*100
variable tdamp equal 0.001*100
variable pdamp equal ${timestep}*1000
variable pdamp equal 0.001*1000
fix npt all npt temp ${T} ${T} ${tdamp} iso ${p} ${p} ${pdamp}
fix npt all npt temp 1.5 ${T} ${tdamp} iso ${p} ${p} ${pdamp}
fix npt all npt temp 1.5 1.5 ${tdamp} iso ${p} ${p} ${pdamp}
fix npt all npt temp 1.5 1.5 0.1 iso ${p} ${p} ${pdamp}
fix npt all npt temp 1.5 1.5 0.1 iso 2 ${p} ${pdamp}
fix npt all npt temp 1.5 1.5 0.1 iso 2 2 ${pdamp}
fix npt all npt temp 1.5 1.5 0.1 iso 2 2 1
run 10000
Last active /omp style is pair_style lj/cut/omp
Per MPI rank memory allocation (min/avg/max) = 10.63 | 10.63 | 10.63 Mbytes
Time TotEng Temp Press 
          10   -3.0022175     1.367947    2.2081586 
       10.01   -2.9991092      1.41681    1.9453124 
       10.02   -2.9949112    1.4401797    1.8224242 
       10.03   -2.9889727    1.4357545    1.8555219 
       10.04    -2.979906     1.411624    2.0090053 
       10.05   -2.9692262     1.377605    2.2304591 
       10.06   -2.9544298    1.3385959    2.4934434 
       10.07   -2.9340014      1.30012    2.7662042 
       10.08   -2.9103649    1.2712172    2.9943476 
       10.09   -2.8800722    1.2694882    3.0978392 
        10.1   -2.8442654    1.3101874    3.0085823 
       10.11   -2.8014062     1.373015    2.8262278 
       10.12   -2.7530375    1.4293494    2.6816048 
       10.13   -2.7056914    1.4720067    2.5977946 
       10.14   -2.6646702    1.4949049    2.5882517 
       10.15   -2.6293922    1.4991988    2.6424467 
       10.16    -2.602456    1.4989831    2.6919035 
       10.17   -2.5819861    1.4932621    2.7427132 
       10.18   -2.5686864    1.4769727     2.813188 
       10.19   -2.5593495    1.4621825    2.8538258 
        10.2   -2.5521881    1.4506203     2.858325 
       10.21   -2.5478751     1.438737    2.8402981 
       10.22   -2.5450501    1.4355105    2.7657196 
       10.23   -2.5414702    1.4496343    2.6080159 
       10.24   -2.5388124    1.4729678    2.4115727 
       10.25   -2.5347578    1.4876677    2.2689053 
       10.26   -2.5316842    1.4809371    2.2387988 
       10.27   -2.5270963    1.4509208     2.332593 
       10.28   -2.5241258    1.3984468    2.5313816 
       10.29   -2.5192672    1.3366959    2.7659251 
        10.3   -2.5147741    1.3040521    2.8559156 
       10.31    -2.505952    1.3123873    2.7567667 
       10.32   -2.4924087    1.3257341     2.626449 
       10.33   -2.4746034    1.3228998    2.5581378 
       10.34   -2.4533689    1.3302625    2.4440815 
       10.35   -2.4291064    1.3700518    2.1971081 
       10.36   -2.3995132    1.4228373    1.9079954 
       10.37    -2.369735    1.4653027    1.6726232 
       10.38   -2.3406301    1.4887213    1.5308039 
       10.39   -2.3135405    1.4903392    1.4928611 
        10.4   -2.2905616    1.4731091    1.5404723 
       10.41   -2.2713447    1.4501534    1.6156766 
       10.42    -2.254231    1.4360812    1.6574185 
       10.43   -2.2368552    1.4345089    1.6518767 
       10.44    -2.222344    1.4327261    1.6420565 
       10.45   -2.2080791    1.4225468    1.6587937 
       10.46   -2.1926299    1.4221716    1.6282137 
       10.47   -2.1766231    1.4465327    1.4911395 
       10.48   -2.1586565    1.4831494    1.3026166 
       10.49   -2.1412704    1.5191619    1.1168478 
        10.5   -2.1225704    1.5454842    0.9791542 
       10.51   -2.1057826    1.5565416   0.91043484 
       10.52   -2.0901133    1.5579339   0.89154111 
       10.53   -2.0780167    1.5615933    0.8748255 
       10.54   -2.0682113    1.5655972   0.87194377 
       10.55   -2.0609499    1.5571792   0.93360885 
       10.56    -2.053738     1.532644    1.0778502 
       10.57   -2.0497031    1.4979735    1.2751926 
       10.58   -2.0425299    1.4612215    1.4991409 
       10.59   -2.0337628    1.4318656    1.7064377 
        10.6   -2.0262445    1.4161191    1.8655713 
       10.61   -2.0151499    1.4078872     2.003169 
       10.62   -2.0008128    1.4018716    2.1358578 
       10.63   -1.9834845    1.4029353     2.241722 
       10.64   -1.9637299    1.4183368    2.2916139 
       10.65   -1.9374926    1.4310225    2.3560847 
       10.66   -1.9083565    1.4324563    2.4606845 
       10.67   -1.8771426    1.4455251    2.5143219 
       10.68   -1.8440553     1.473681    2.5029768 
       10.69   -1.8079118    1.4979709    2.5028196 
        10.7   -1.7703594    1.5149193    2.5258381 
       10.71    -1.734712    1.5451517    2.4884281 
       10.72   -1.7003923    1.5896939    2.3893022 
       10.73   -1.6685244    1.6105791    2.3725722 
       10.74   -1.6426052    1.5946987    2.4790332 
       10.75   -1.6218953    1.5795942    2.5588263 
       10.76   -1.6050176    1.5981627    2.4829968 
       10.77   -1.5940793     1.636402    2.3012309 
       10.78   -1.5861638      1.68209    2.0705382 
       10.79   -1.5864129    1.7274784    1.8233496 
        10.8   -1.5925369    1.7551738    1.6370867 
       10.81   -1.6066607    1.7545551    1.5546626 
       10.82    -1.627513    1.7297476    1.5637292 
       10.83   -1.6528374     1.696842    1.6053912 
       10.84   -1.6808692    1.6665239    1.6400237 
       10.85   -1.7086343    1.6303679    1.7013526 
       10.86   -1.7346156    1.5864372    1.7960033 
       10.87   -1.7586397    1.5577898    1.8353455 
       10.88   -1.7805874    1.5580917    1.7685656 
       10.89   -1.7982005     1.565608    1.6835242 
        10.9   -1.8148333    1.5602675    1.6559771 
       10.91   -1.8306199    1.5448542    1.6779547 
       10.92   -1.8442719    1.5252386    1.7271901 
       10.93    -1.857611    1.5016374    1.7952199 
       10.94    -1.868869    1.4794536    1.8579628 
       10.95   -1.8782059    1.4703322     1.866729 
       10.96   -1.8851479    1.4761147    1.8141905 
       10.97   -1.8918847     1.483912    1.7489951 
       10.98   -1.8975038     1.480557     1.726665 
       10.99   -1.9028857    1.4699565    1.7342176 
          11   -1.9060771    1.4691039    1.7120756 
       11.01   -1.9085886    1.4785337    1.6575384 
       11.02   -1.9107719    1.4834917    1.6279635 
       11.03   -1.9129957    1.4787802    1.6454661 
       11.04   -1.9126441    1.4696473    1.6951373 
       11.05    -1.910811    1.4637695    1.7465155 
       11.06   -1.9073156    1.4572354     1.813757 
       11.07   -1.9050176    1.4386043    1.9336505 
       11.08    -1.898555    1.4108312    2.0983139 
       11.09   -1.8894517    1.3879492    2.2465139 
        11.1   -1.8777217    1.3845606    2.3166994 
       11.11   -1.8620058    1.4078104    2.2800796 
       11.12   -1.8420469    1.4534938    2.1542977 
       11.13   -1.8187325    1.5051789    2.0046053 
       11.14    -1.792579    1.5520451    1.8758828 
       11.15   -1.7656865    1.5975845    1.7553951 
       11.16   -1.7377224    1.6442182    1.6363888 
       11.17    -1.711249    1.6864254    1.5387577 
       11.18   -1.6877012    1.7157601     1.496078 
       11.19   -1.6703582    1.7210342    1.5496113 
        11.2    -1.658157    1.6883125    1.7542036 
       11.21   -1.6493046     1.604935    2.1522387 
       11.22    -1.642801    1.5010217    2.6113724 
       11.23    -1.638851    1.4952099    2.6695587 
       11.24   -1.6351823     1.567228    2.4036281 
       11.25   -1.6327897    1.6163583    2.2035782 
       11.26   -1.6338118    1.6307911    2.1221259 
       11.27     -1.64225    1.6387557    2.0475003 
       11.28   -1.6571219    1.6597946    1.9067968 
       11.29   -1.6790987      1.67542    1.7746529 
        11.3   -1.7120152    1.6431404    1.8155137 
       11.31   -1.7528464    1.5364273    2.1345745 
       11.32   -1.7921954    1.4155857    2.5027415 
       11.33   -1.8332529    1.4143692    2.3953483 
       11.34   -1.8753021    1.4865362    1.9867795 
       11.35   -1.9179254    1.5257016    1.7015452 
       11.36   -1.9596097    1.5164439    1.6206857 
       11.37   -2.0004788    1.4778542    1.6768389 
       11.38   -2.0377352    1.4361463    1.7713393 
       11.39   -2.0673664    1.3987404    1.8755762 
        11.4   -2.0912325    1.3694796    1.9673095 
       11.41   -2.1097971    1.3553996     2.016768 
       11.42   -2.1233562    1.3461748    2.0622413 
       11.43   -2.1314724     1.333125    2.1373117 
       11.44   -2.1357652    1.3150327    2.2417432 
       11.45   -2.1337979    1.2941289    2.3646865 
       11.46   -2.1293471    1.2831366    2.4451787 
       11.47   -2.1179969     1.298072    2.4238543 
       11.48   -2.1016755    1.3292268    2.3371585 
       11.49   -2.0816975    1.3602606    2.2511907 
        11.5   -2.0572603    1.3972186    2.1480747 
       11.51   -2.0301496    1.4448156    2.0093883 
       11.52   -2.0024542    1.4898554    1.8841365 
       11.53   -1.9730163    1.5218683    1.8155524 
       11.54   -1.9445541    1.5401355    1.8030219 
       11.55   -1.9192898    1.5485874    1.8278581 
       11.56   -1.8964817    1.5530705    1.8683944 
       11.57   -1.8774445    1.5555563    1.9156737 
       11.58   -1.8584048    1.5511869    1.9930192 
       11.59   -1.8442884    1.5378812    2.0983105 
        11.6   -1.8303905    1.5253041    2.1957484 
       11.61   -1.8192512    1.5216005    2.2440751 
       11.62   -1.8104935    1.5369391    2.2010703 
       11.63   -1.8037264     1.581836    2.0299366 
       11.64   -1.7991508    1.6314318    1.8327599 
       11.65   -1.7980031    1.6548537    1.7337553 
       11.66    -1.802874    1.6478389    1.7488786 
       11.67   -1.8113027    1.6316856    1.7988269 
       11.68    -1.823147    1.6199526    1.8287363 
       11.69   -1.8390194    1.6065085    1.8593311 
        11.7   -1.8556624    1.5834558    1.9262119 
       11.71   -1.8745981    1.5422594    2.0610426 
       11.72    -1.893098    1.4861259    2.2545834 
       11.73      -1.9098    1.4274972    2.4558024 
       11.74   -1.9225043    1.3902118    2.5679539 
       11.75   -1.9340332    1.3970609    2.4957612 
       11.76   -1.9420786     1.417629     2.360292 
       11.77    -1.949944    1.4273861    2.2581136 
       11.78    -1.951789    1.4317133    2.1822135 
       11.79    -1.953736    1.4481073    2.0606148 
        11.8   -1.9533478    1.4760597    1.9023517 
       11.81   -1.9519772    1.4973886    1.7800889 
       11.82    -1.949612    1.5004574    1.7424397 
       11.83   -1.9489005    1.4851223    1.7863924 
       11.84   -1.9475725    1.4596595    1.8794764 
       11.85   -1.9473575    1.4375876    1.9616691 
       11.86    -1.944703    1.4328446    1.9797096 
       11.87   -1.9420459    1.4496529    1.9123796 
       11.88   -1.9382869    1.4811923     1.789582 
       11.89   -1.9349139    1.5140912    1.6657296 
        11.9     -1.93098    1.5272932     1.625425 
       11.91   -1.9284083    1.5157182    1.6829734 
       11.92   -1.9271488     1.502654    1.7430957 
       11.93   -1.9261285    1.5045439     1.738712 
       11.94   -1.9245042    1.5114816    1.7066943 
       11.95   -1.9254039    1.5186919    1.6626244 
       11.96    -1.925271    1.5355185    1.5784209 
       11.97   -1.9255029    1.5608736    1.4589155 
       11.98   -1.9269329    1.5842525     1.346182 
       11.99   -1.9324391    1.6068916    1.2368772 
          12   -1.9397002    1.6247473     1.156189 
       12.01    -1.951645    1.6197486    1.1751235 
       12.02   -1.9650754    1.5833725    1.3333297 
       12.03   -1.9810499    1.5282269    1.5767836 
       12.04   -1.9974516    1.4833614    1.7871994 
       12.05    -2.011785    1.4667922    1.8899841 
       12.06   -2.0252904    1.4635184    1.9383476 
       12.07   -2.0395736    1.4587395    1.9898517 
       12.08   -2.0518504    1.4548288    2.0416144 
       12.09   -2.0644877    1.4517425    2.0897587 
        12.1   -2.0745653    1.4463794    2.1480746 
       12.11   -2.0839136    1.4469724    2.1786473 
       12.12    -2.093061     1.463945    2.1371007 
       12.13    -2.100585     1.492805    2.0424737 
       12.14   -2.1109953    1.5223029    1.9367645 
       12.15   -2.1232888    1.5429858     1.866743 
       12.16   -2.1381814    1.5419721    1.8906775 
       12.17   -2.1544964    1.5040256    2.0741861 
       12.18   -2.1725676    1.4285128    2.4143418 
       12.19   -2.1888238    1.3448406     2.784575 
        12.2   -2.2014382    1.2966437    2.9960032 
       12.21   -2.2123921    1.2965796    2.9847404 
       12.22   -2.2205328    1.3268984    2.8261286 
       12.23   -2.2252224    1.3703243    2.6041554 
       12.24   -2.2304958    1.3948415    2.4552165 
       12.25   -2.2334689    1.3843638    2.4580661 
       12.26   -2.2326603    1.3527593    2.5619216 
       12.27   -2.2276819    1.3231562    2.6679925 
       12.28   -2.2194124    1.3295243    2.6320066 
       12.29   -2.2048816    1.3811274    2.4193087 
        12.3   -2.1826409    1.4552528    2.1289969 
       12.31   -2.1518723    1.5292082     1.864996 
       12.32   -2.1170847    1.5862605    1.6976542 
       12.33   -2.0801013    1.6194239    1.6564147 
       12.34   -2.0417457     1.628515    1.7380349 
       12.35   -2.0065332    1.6184387    1.9084036 
       12.36   -1.9733231    1.5994476    2.1176099 
       12.37   -1.9426134    1.5830264    2.3089038 
       12.38   -1.9141091    1.5787559    2.4383209 
       12.39   -1.8902393    1.5877393    2.4969031 
        12.4   -1.8682907    1.6010766    2.5243855 
       12.41   -1.8476057    1.6144067    2.5376667 
       12.42   -1.8312957    1.6326354    2.5097399 
       12.43   -1.8179357    1.6507474    2.4584136 
       12.44   -1.8113895    1.6527203    2.4367485 
       12.45   -1.8096907    1.6498102    2.4010874 
       12.46   -1.8136328    1.6777907    2.2150297 
       12.47     -1.82252    1.7130187     1.980654 
       12.48   -1.8360088    1.7135921    1.8725046 
       12.49   -1.8591251    1.6766454    1.9020551 
        12.5   -1.8911551    1.6165107    2.0142545 
       12.51    -1.925971    1.5520098    2.1385641 
       12.52   -1.9646196    1.5059646    2.1772293 
       12.53   -2.0047739    1.4815403    2.1162368 
       12.54   -2.0461462    1.4635879    2.0168938 
       12.55   -2.0855049    1.4358607    1.9532035 
       12.56   -2.1225818    1.3986834    1.9296001 
       12.57   -2.1580401    1.3684707    1.8842544 
       12.58   -2.1865305    1.3573676    1.7806977 
       12.59   -2.2129887     1.351922    1.6682788 
        12.6   -2.2325176    1.3353358     1.622152 
       12.61   -2.2476118    1.3137056    1.6148674 
       12.62   -2.2562572    1.3081913    1.5646594 
       12.63   -2.2601946    1.3304218    1.4232547 
       12.64   -2.2599247    1.3688416    1.2382553 
       12.65    -2.254197    1.3996185    1.1090586 
       12.66   -2.2465912    1.4120131    1.0760173 
       12.67   -2.2349181     1.417192    1.0999246 
       12.68   -2.2179007    1.4301357    1.1254062 
       12.69   -2.2004678    1.4447815    1.1710568 
        12.7   -2.1777675    1.4351506    1.3447761 
       12.71   -2.1503662    1.3874069    1.6945737 
       12.72   -2.1196818    1.3291844    2.0997863 
       12.73    -2.080144    1.3257431    2.3073286 
       12.74   -2.0299436    1.3780484    2.3133966 
       12.75   -1.9682078    1.4307321    2.3329105 
       12.76   -1.9007873      1.47451    2.3925753 
       12.77    -1.833601    1.5220114    2.4273044 
       12.78   -1.7708057    1.5746013    2.4159887 
       12.79   -1.7210016    1.6211211    2.3841958 
        12.8   -1.6849073    1.6479614    2.3850593 
       12.81   -1.6613313    1.6487471    2.4516108 
       12.82   -1.6492212     1.629052    2.5700576 
       12.83   -1.6446841     1.605397    2.6847133 
       12.84   -1.6455824    1.5895711    2.7525306 
       12.85   -1.6490909    1.5758249    2.7969315 
       12.86   -1.6567433    1.5565418    2.8409098 
       12.87   -1.6655373    1.5419199     2.844574 
       12.88   -1.6759368    1.5505611    2.7346795 
       12.89   -1.6899021    1.5827056    2.5152611 
        12.9   -1.7021996    1.6139183    2.3013438 
       12.91   -1.7201683    1.6119518    2.2179616 
       12.92   -1.7423311    1.5622382    2.3241907 
       12.93   -1.7644663    1.4855238    2.5375211 
       12.94   -1.7861664    1.4279056    2.6700432 
       12.95   -1.8084173    1.4098728    2.6340231 
       12.96   -1.8278879    1.4108126    2.5116142 
       12.97   -1.8470375    1.4128653    2.3717734 
       12.98   -1.8619199    1.4199313    2.2109489 
       12.99   -1.8748953    1.4407045     2.000007 
          13   -1.8848213    1.4676517     1.777764 
       13.01   -1.8945085     1.476496    1.6393341 
       13.02   -1.9011377    1.4502346    1.6533523 
       13.03   -1.9068314    1.4098574    1.7335137 
       13.04   -1.9093926     1.405447    1.6942205 
       13.05   -1.9086633    1.4235103    1.5847991 
       13.06   -1.9058736    1.4351994    1.5128955 
       13.07   -1.8995335    1.4328905    1.5113255 
       13.08   -1.8894742    1.4074796    1.6097447 
       13.09   -1.8770041    1.3751068    1.7386241 
        13.1   -1.8608545    1.3711607    1.7633713 
       13.11   -1.8390764    1.4031269    1.6593492 
       13.12   -1.8107527      1.44516    1.5280471 
       13.13   -1.7759401    1.4830961     1.429314 
       13.14   -1.7392029     1.515132    1.3688468 
       13.15   -1.7016459    1.5384443    1.3561837 
       13.16    -1.665248    1.5482659    1.4023365 
       13.17    -1.628782    1.5485517    1.4882359 
       13.18   -1.5963062    1.5494165    1.5649807 
       13.19   -1.5654086    1.5609078    1.5943609 
        13.2   -1.5369423    1.5896614    1.5508197 
       13.21   -1.5137453    1.6217539    1.4828003 
       13.22   -1.4950641    1.6363864      1.46728 
       13.23   -1.4822807    1.6398457    1.4802438 
       13.24   -1.4746395    1.6467338    1.4698592 
       13.25   -1.4706764    1.6490423    1.4659628 
       13.26   -1.4709637    1.6439805    1.4776971 
       13.27   -1.4764287    1.6511453     1.434735 
       13.28   -1.4869762    1.6759706    1.3202351 
       13.29   -1.5022684    1.6967082    1.2181077 
        13.3   -1.5232601    1.6879707    1.2238461 
       13.31   -1.5477965     1.652645    1.3319828 
       13.32   -1.5750389     1.614627    1.4552624 
       13.33   -1.6043391    1.5881018    1.5393651 
       13.34   -1.6322239    1.5695748    1.6001585 
       13.35    -1.659388    1.5493817    1.6738049 
       13.36   -1.6854042    1.5234115    1.7788745 
       13.37   -1.7072967    1.4953133    1.9072941 
       13.38   -1.7235398    1.4702743    2.0395738 
       13.39    -1.736785    1.4561158    2.1388471 
        13.4   -1.7455717    1.4582459    2.1832981 
       13.41   -1.7514719    1.4702883    2.1939684 
       13.42   -1.7533802    1.4768513     2.232258 
       13.43   -1.7548333    1.4653961    2.3430632 
       13.44   -1.7524183    1.4414011    2.5091565 
       13.45   -1.7486076    1.4318338    2.6208508 
       13.46   -1.7415432     1.447479      2.63329 
       13.47   -1.7346236    1.4678636    2.6143554 
       13.48    -1.727941    1.4800931    2.6111576 
       13.49    -1.721263    1.4951969    2.5819946 
        13.5   -1.7164731    1.5222958    2.4899621 
       13.51   -1.7137169    1.5564971     2.357846 
       13.52   -1.7127991    1.5751854    2.2784861 
       13.53   -1.7142177     1.563567    2.3113941 
       13.54   -1.7165396    1.5466891     2.363952 
       13.55   -1.7211422     1.552449    2.3268191 
       13.56   -1.7275602     1.563905    2.2631632 
       13.57   -1.7364475    1.5548334    2.2724654 
       13.58   -1.7478988    1.5377316     2.310485 
       13.59   -1.7590782    1.5044116    2.4041896 
        13.6   -1.7718119    1.4806846    2.4434677 
       13.61   -1.7822474    1.5018043    2.2946861 
       13.62   -1.7959686     1.545796    2.0336706 
       13.63   -1.8124033    1.5859075       1.7718 
       13.64   -1.8301827    1.6019288    1.5978512 
       13.65   -1.8530916    1.5870687    1.5393893 
       13.66   -1.8799654     1.548593    1.5730926 
       13.67   -1.9074709    1.4937218    1.6741433 
       13.68   -1.9366728    1.4365203    1.7839582 
       13.69   -1.9650438    1.4025895    1.8067781 
        13.7   -1.9920661    1.3976557    1.7223387 
       13.71   -2.0171689    1.4005135    1.6160739 
       13.72   -2.0418625     1.386891    1.5830862 
       13.73   -2.0622637    1.3572222    1.6294153 
       13.74    -2.080532     1.334867    1.6628543 
       13.75   -2.0947109    1.3296083    1.6456108 
       13.76   -2.1069177    1.3351507    1.5967019 
       13.77   -2.1147852    1.3452119    1.5443861 
       13.78   -2.1204498     1.352134    1.5167967 
       13.79   -2.1228761    1.3478724     1.545752 
        13.8   -2.1202203    1.3383518    1.6085744 
       13.81   -2.1130599    1.3518519    1.5945836 
       13.82   -2.1011521    1.4049909    1.4446098 
       13.83   -2.0834694    1.4612712     1.308565 
       13.84   -2.0592861    1.4881319    1.3228231 
       13.85   -2.0283112    1.4880507    1.4823721 
       13.86   -1.9912946    1.4824987    1.6992992 
       13.87   -1.9479385    1.4855938    1.9106226 
       13.88   -1.8984031     1.496128    2.1112384 
       13.89   -1.8455266    1.5109036    2.3020458 
        13.9   -1.7915564    1.5282415    2.4796481 
       13.91   -1.7371276    1.5509144    2.6262622 
       13.92   -1.6848101    1.5866417    2.7051515 
       13.93   -1.6356016    1.6307785    2.7339421 
       13.94   -1.5932386    1.6619921     2.792101 
       13.95   -1.5597377    1.6834611    2.8651418 
       13.96   -1.5333302    1.7027412    2.9204465 
       13.97   -1.5162377    1.7241552    2.9308466 
       13.98   -1.5077253    1.7446757    2.9065596 
       13.99   -1.5090247    1.7513439    2.8980622 
          14   -1.5201564    1.7339363    2.9475472 
       14.01   -1.5388067    1.6892328    3.0695304 
       14.02    -1.564543    1.6335101    3.1961037 
       14.03   -1.5942165    1.6051705     3.179105 
       14.04    -1.630989    1.6279972    2.9276293 
       14.05   -1.6723716    1.6552315    2.6366954 
       14.06   -1.7170998    1.6547816    2.4450767 
       14.07   -1.7652942     1.629565     2.349244 
       14.08   -1.8162053    1.5829052     2.339184 
       14.09   -1.8633497    1.5199332    2.4012797 
        14.1   -1.9073175    1.4570681     2.464417 
       14.11   -1.9439714    1.4248737    2.4098676 
       14.12   -1.9753246    1.4365763    2.1841297 
       14.13   -2.0018703    1.4661783    1.8943788 
       14.14   -2.0244322    1.4860819    1.6565772 
       14.15   -2.0449409    1.4890929    1.5039206 
       14.16   -2.0623312    1.4750164    1.4420401 
       14.17   -2.0766554    1.4417508     1.478125 
       14.18   -2.0872805    1.3955296    1.5853698 
       14.19   -2.0953213    1.3552541    1.6845524 
        14.2   -2.0994837    1.3315894    1.7318718 
       14.21   -2.0997482    1.3185387    1.7471958 
       14.22   -2.0966832    1.3096374    1.7535957 
[...]
   27280   -1.5996691    1.5970407     1.935986   0.67201591 
   27290   -1.6209821    1.6190398    1.7687563   0.67167353 
   27300   -1.6482074    1.6389922     1.589105   0.67137617 
   27310   -1.6811179    1.6433433    1.4551445    0.6711583 
   27320   -1.7217703    1.6311749    1.3747285   0.67104625 
   27330   -1.7652397    1.6080044    1.3399547   0.67105582 
   27340   -1.8126727    1.5736933    1.3537285   0.67119376 
   27350   -1.8592796    1.5295207    1.4204212   0.67145718 
   27360   -1.9062616    1.4799331    1.5225851   0.67183333 
   27370   -1.9450554    1.4297472    1.6515805   0.67230193 
   27380   -1.9777081      1.39121    1.7550264   0.67283843 
   27390   -2.0023909    1.3782251    1.7797943    0.6734235 
   27400   -2.0209831    1.3875554    1.7338413   0.67405225 
   27410   -2.0358865    1.4064424    1.6631027   0.67473298 
   27420   -2.0456648    1.4261446    1.6055638   0.67547918 
   27430   -2.0523482    1.4372841    1.5967392   0.67630183 
   27440   -2.0578795    1.4264892    1.6856184   0.67720199 
   27450   -2.0579614    1.3938258     1.875679   0.67816207 
   27460   -2.0542563     1.367703      2.05308    0.6791466 
   27470   -2.0469443    1.3724368    2.1221196   0.68012216 
   27480   -2.0364864    1.3901879    2.1485402   0.68107373 
   27490   -2.0236325    1.3933028    2.2375692   0.68199426 
   27500   -2.0089756    1.3820849    2.3871693   0.68286594 
   27510   -1.9923363    1.3854343    2.4873382   0.68366099 
   27520    -1.971676    1.4020473    2.5433519   0.68435921 
   27530   -1.9501923    1.4122854    2.6229047   0.68494818 
   27540   -1.9279127    1.4146036    2.7292801   0.68541203 
   27550   -1.9043435    1.4026563    2.8781109   0.68572912 
   27560   -1.8815705     1.389503    3.0035354   0.68587085 
   27570   -1.8552589    1.4099294    2.9675699   0.68581457 
   27580   -1.8307198    1.4787647    2.7039038   0.68556872 
   27590   -1.8054758    1.5712546    2.3192094   0.68518373 
   27600   -1.7825742    1.6496556    1.9681821   0.68473321 
   27610   -1.7655904    1.6924775    1.7415715   0.68428524 
   27620   -1.7561222    1.6990923     1.647844   0.68388456 
   27630   -1.7539841    1.6847108    1.6335682   0.68355063 
   27640   -1.7558662     1.663336    1.6511348   0.68328708 
   27650   -1.7644513    1.6384337    1.6823403   0.68309071 
   27660   -1.7755629    1.6189699    1.6975559   0.68295567 
   27670   -1.7892285    1.6156816    1.6568539   0.68287982 
   27680   -1.8062336    1.6173147    1.6044821   0.68287054 
   27690   -1.8223455     1.603159    1.6271532   0.68293667 
   27700   -1.8399075    1.5771295    1.7085119   0.68307423 
   27710   -1.8577674    1.5515101    1.8020185   0.68326811 
   27720   -1.8743384    1.5212133     1.923892   0.68349951 
   27730   -1.8878758    1.4885777    2.0612549    0.6837445 
   27740   -1.9001176     1.467649    2.1521106   0.68397704 
   27750   -1.9086156    1.4631648    2.1773343   0.68417938 
   27760   -1.9156894      1.46803    2.1613106   0.68434605 
   27770   -1.9201336    1.4753968    2.1377814   0.68447952 
   27780   -1.9228655    1.4719739    2.1625165   0.68458351 
   27790   -1.9256353    1.4454594      2.28193   0.68465244 
   27800   -1.9263513    1.3982532    2.4835396   0.68466265 
   27810   -1.9255961    1.3622807     2.632402   0.68457622 
   27820    -1.920971    1.3870963    2.5362513   0.68436684 
   27830   -1.9139804    1.4531344    2.2696595   0.68405176 
   27840   -1.9067534    1.5121287    2.0253748   0.68368039 
   27850   -1.9011001    1.5413809    1.9005784   0.68329956 
   27860   -1.8964827    1.5296032     1.942935   0.68293313 
   27870   -1.8931935    1.4813432    2.1281765   0.68257314 
   27880   -1.8904916    1.4301166    2.3172369   0.68218507 
   27890   -1.8871677    1.4172449     2.344057   0.68173433 
   27900   -1.8793049    1.4480164    2.1917333   0.68121571 
   27910    -1.871062    1.4970219    1.9590244   0.68065747 
   27920   -1.8627998    1.5402287    1.7488672   0.68010397 
   27930   -1.8557443    1.5640027     1.620626   0.67959592 
   27940   -1.8490324    1.5626927    1.6001677   0.67915838 
   27950   -1.8459892    1.5429311    1.6555749   0.67879609 
   27960   -1.8443932     1.524708    1.7091973   0.67849953 
   27970   -1.8411731    1.5219572    1.7069573   0.67825905 
   27980   -1.8389092    1.5375436    1.6323663   0.67807559 
   27990   -1.8403464    1.5625832    1.5174504   0.67796358 
   28000    -1.841164    1.5791239    1.4404286   0.67794465 
   28010   -1.8446156    1.5729408    1.4543398   0.67803365 
   28020   -1.8510725    1.5423139    1.5646223   0.67822821 
   28030   -1.8585945    1.5070572     1.694965   0.67850823 
   28040   -1.8667015    1.4918173     1.749754   0.67884998 
   28050   -1.8761858    1.4883598    1.7588834   0.67924243 
   28060   -1.8882703    1.4692468    1.8262001   0.67968225 
   28070   -1.9002143    1.4344269    1.9571228   0.68015623 
   28080   -1.9136507    1.4068554    2.0610804   0.68064033 
   28090   -1.9307249    1.3877376    2.1258184   0.68111419 
   28100   -1.9459357    1.3640151    2.2036486   0.68156387 
   28110   -1.9606046    1.3423732    2.2643384   0.68197435 
   28120   -1.9752617    1.3438632    2.2263173    0.6823349 
   28130   -1.9880086    1.3688293    2.0929899   0.68265264 
   28140   -2.0000622    1.3953991    1.9513556   0.68295226 
   28150   -2.0115557    1.4075263    1.8690974   0.68326076 
   28160   -2.0206245    1.3986293    1.8780006   0.68359404 
   28170    -2.027439    1.3723723    1.9637473   0.68395085 
   28180   -2.0304184    1.3468326    2.0571314   0.68431557 
   28190    -2.029106    1.3412139    2.0833438   0.68467103 
   28200   -2.0236864     1.357985    2.0337271    0.6850121 
   28210   -2.0147535    1.3789473    1.9807196   0.68534724 
   28220   -2.0038327    1.3912831    1.9747099   0.68568621 
   28230   -1.9867049    1.4053709    1.9834203   0.68603074 
   28240   -1.9679219    1.4335289    1.9540545    0.6863802 
   28250   -1.9458041    1.4638126    1.9345861   0.68673955 
   28260   -1.9202278    1.4791742    1.9886217   0.68711166 
   28270   -1.8927503    1.4846838    2.0914885   0.68748635 
   28280   -1.8633342    1.4919935    2.1941523   0.68784396 
   28290   -1.8328003    1.5043587     2.278069   0.68816418 
   28300   -1.8027639    1.5274816    2.3163625   0.68843059 
   28310   -1.7716692    1.5546102    2.3364881   0.68863456 
   28320   -1.7441331    1.5686998    2.3979946   0.68877075 
   28330   -1.7183717     1.557281     2.548769   0.68882542 
   28340   -1.6948142    1.5275534    2.7541543   0.68876856 
   28350   -1.6738007    1.5051978    2.9066382   0.68856033 
   28360   -1.6551442    1.5163077    2.9015382   0.68817114 
   28370   -1.6364135    1.5594344    2.7497287   0.68760058 
   28380   -1.6209546    1.6054193    2.5647326   0.68687557 
   28390   -1.6059014     1.639505    2.4144315   0.68603069 
   28400   -1.5965052     1.661382     2.298116   0.68509528 
   28410   -1.5912376    1.6597066    2.2605729   0.68409113 
   28420   -1.5900371    1.6353054    2.2932145   0.68302538 
   28430   -1.5958538    1.6236325    2.2537141   0.68189376 
   28440   -1.6064736    1.6359568    2.1043687    0.6807044 
   28450    -1.621268    1.6412485    1.9695612   0.67948442 
   28460    -1.641999    1.6217892    1.9203951   0.67825941 
   28470    -1.666226    1.5858348    1.9319811   0.67703964 
   28480   -1.6934158    1.5448989    1.9608616   0.67582362 
   28490   -1.7239584    1.5005783    1.9967652    0.6746059 
   28500   -1.7571782     1.458555    2.0142287   0.67337967 
   28510   -1.7901185    1.4409915    1.9320039   0.67214294 
   28520   -1.8236076    1.4523024    1.7365177   0.67091243 
   28530   -1.8599756    1.4546369     1.573505    0.6697243 
   28540   -1.8937514    1.4364204    1.5023561   0.66861012 
   28550   -1.9287989    1.4124903    1.4670177   0.66758566 
   28560   -1.9634271    1.3830865    1.4670265   0.66665837 
   28570   -1.9930658    1.3400426    1.5332014   0.66582802 
   28580   -2.0195933    1.2922961    1.6214595   0.66508279 
   28590   -2.0423888    1.2676286    1.6219249   0.66440766 
   28600   -2.0585739    1.2819063     1.477275   0.66380389 
   28610    -2.070391    1.3209554    1.2427468   0.66329964 
   28620   -2.0802698    1.3591697     1.021284   0.66294054 
   28630    -2.085969    1.3795302     0.889218   0.66277038 
   28640   -2.0880143    1.3835242   0.84663968   0.66281702 
   28650   -2.0881586    1.3839785   0.84610727   0.66309192 
   28660   -2.0849389    1.3854157   0.87265518   0.66359778 
   28670   -2.0768487    1.3859576   0.93503922    0.6643316 
   28680   -2.0616458    1.3855758    1.0366913   0.66528365 
   28690   -2.0391143    1.3806724     1.190257   0.66643619 
   28700    -2.006924    1.3686721    1.4043233   0.66776089 
   28710   -1.9646933    1.3722121     1.589533    0.6692188 
   28720   -1.9097265    1.4204932    1.6372321   0.67077679 
   28730   -1.8457498    1.4986718    1.5971931    0.6724256 
   28740   -1.7765172    1.5696602    1.6043012   0.67417181 
   28750   -1.7093291    1.6154885    1.7150325   0.67601416 
   28760   -1.6481417    1.6369172    1.9147572   0.67793184 
   28770   -1.5945721    1.6414586    2.1625148    0.6798863 
   28780   -1.5493127    1.6424619     2.395927   0.68182914 
   28790   -1.5118972    1.6532663    2.5564342   0.68371412 
   28800   -1.4813016    1.6750915    2.6364011   0.68550813 
   28810   -1.4590285     1.695574    2.6808382   0.68719292 
   28820   -1.4444173    1.7038505    2.7351709   0.68875722 
   28830   -1.4388019    1.6952896    2.8175142   0.69018822 
   28840   -1.4412095     1.683565    2.8770869   0.69146853 
   28850   -1.4484173    1.6970592    2.8110483   0.69258641 
   28860   -1.4647824    1.7191784    2.6803731   0.69355226 
   28870    -1.488135    1.7160906    2.6251918   0.69438808 
   28880   -1.5186324    1.6897749    2.6440427   0.69510379 
   28890   -1.5532529    1.6577565    2.6741905   0.69569558 
   28900   -1.5930953    1.6231768    2.6995937   0.69615665 
   28910   -1.6330062    1.5777785    2.7575832   0.69647994 
   28920   -1.6714008    1.5293159    2.8204763   0.69665308 
   28930   -1.7080248    1.5080322    2.7745369   0.69666445 
   28940   -1.7425851    1.5164187    2.6159739     0.696522 
   28950   -1.7752033    1.5107374    2.5166129   0.69625282 
   28960   -1.8036282     1.486211    2.4961888   0.69587531 
   28970   -1.8291387    1.4866428    2.3785332    0.6953959 
   28980   -1.8524264    1.5195398    2.1310422   0.69483767 
   28990   -1.8742028    1.5483215    1.8983786    0.6942465 
   29000   -1.8952645    1.5506758    1.7740887   0.69366693 
   29010   -1.9167227    1.5254826    1.7655758   0.69312358 
   29020   -1.9348809    1.4885428    1.8157112   0.69261928 
   29030   -1.9518151    1.4684746    1.8072542   0.69214653 
   29040   -1.9669566    1.4796912    1.6823946   0.69170811 
   29050   -1.9795763    1.5086919    1.4953457   0.69132803 
   29060    -1.991497    1.5352221    1.3277965   0.69104283 
   29070    -2.003117    1.5449806    1.2421245   0.69088579 
   29080   -2.0169706    1.5293927    1.2725409   0.69087464 
   29090   -2.0300563     1.487842    1.4247372   0.69100471 
   29100   -2.0414579     1.433646    1.6421999   0.69124819 
   29110   -2.0514115    1.3957193    1.8043702   0.69156524 
   29120   -2.0571681    1.3968655    1.8213392   0.69192598 
   29130   -2.0592467    1.4276266    1.7292024   0.69232699 
   29140   -2.0601044    1.4576541     1.646743   0.69278517 
   29150   -2.0584299    1.4682674     1.652535   0.69331632 
   29160   -2.0558697    1.4646779    1.7243428   0.69392094 
   29170    -2.052212    1.4611633       1.8029   0.69458688 
   29180   -2.0445683     1.456823     1.887765   0.69529932 
   29190   -2.0368911    1.4508866    1.9679774   0.69604226 
   29200   -2.0287595    1.4631135    1.9625255   0.69680168 
   29210   -2.0177098    1.5007885    1.8461771   0.69757931 
   29220   -2.0050388    1.5489535    1.6814362   0.69839755 
   29230   -1.9928866    1.5907053    1.5432761   0.69928882 
   29240    -1.983251    1.6040141    1.5251138   0.70028025 
   29250   -1.9742919    1.5817169    1.6610265    0.7013765 
   29260   -1.9655796    1.5493473    1.8483895   0.70255401 
   29270   -1.9560342    1.5481283    1.9226658   0.70377976 
   29280   -1.9501289    1.5707576    1.9020699   0.70503946 
   29290   -1.9440318     1.581731    1.9303931   0.70633495 
   29300   -1.9413237     1.573978    2.0312328   0.70766103 
   29310   -1.9410282    1.5558418    2.1701231   0.70899873 
   29320   -1.9427282    1.5437614    2.2780859   0.71032161 
   29330   -1.9469652    1.5516786    2.2955647   0.71160877 
   29340   -1.9555505    1.5742902    2.2421557   0.71285599 
   29350   -1.9668036    1.5778385    2.2595859   0.71407074 
   29360   -1.9837223    1.5397104    2.4402094   0.71524763 
   29370   -2.0010931    1.4622666    2.7813486   0.71634998 
   29380   -2.0195189    1.3795715    3.1364278   0.71731107 
   29390   -2.0341219    1.3392298    3.3087346   0.71806109 
   29400   -2.0458652    1.3519557     3.244921   0.71856315 
   29410   -2.0564295    1.3891633    3.0573115   0.71882417 
   29420   -2.0662105    1.4311141    2.8342224   0.71887663 
   29430   -2.0759838    1.4585692     2.663277   0.71876065 
   29440   -2.0853499    1.4540313    2.6234939   0.71850658 
   29450   -2.0934686    1.4163762     2.721283    0.7181202 
   29460   -2.1005989    1.3628419    2.8788106   0.71758147 
   29470   -2.1068585    1.3330272    2.9271124    0.7168599 
   29480   -2.1082164    1.3540716    2.7608042   0.71594511 
   29490   -2.1060599    1.4033795    2.4750846   0.71486591 
   29500   -2.0984194    1.4473702    2.2188862   0.71367459 
   29510   -2.0893681    1.4750955    2.0395185   0.71242011 
   29520   -2.0792621    1.4986844    1.8940525   0.71113833 
   29530   -2.0664505    1.5128471    1.8070862   0.70985734 
   29540   -2.0519524    1.5050988    1.8236365   0.70859359 
   29550    -2.038011    1.5050056     1.823419    0.7073463 
   29560    -2.022446    1.5230682    1.7683929   0.70611635 
   29570   -2.0058175    1.5263941    1.7844498   0.70491254 
   29580   -1.9885885    1.5104456    1.8856791   0.70373183 
   29590   -1.9721074    1.4934341    1.9919824   0.70255567 
   29600   -1.9560286    1.4932931    2.0256276   0.70136411 
   29610   -1.9374304     1.522603    1.9378302   0.70015093 
   29620    -1.916448    1.5809179    1.7344203   0.69893326 
   29630   -1.8964038    1.6385336    1.5348981    0.6977494 
   29640   -1.8757244    1.6657012    1.4643705   0.69663734 
   29650   -1.8610048      1.65517    1.5425551   0.69561191 
   29660   -1.8515038    1.6224069    1.7043553   0.69465968 
   29670   -1.8435786    1.5954161    1.8384738   0.69375111 
   29680   -1.8399539    1.5885581    1.8819397   0.69286108 
   29690   -1.8385636    1.5895226    1.8870456   0.69198007 
   29700   -1.8394233    1.5793408     1.931492   0.69110599 
   29710   -1.8438293    1.5469872    2.0570902    0.6902293 
   29720   -1.8491181    1.5015272    2.2279365   0.68932543 
   29730   -1.8556965    1.4667136    2.3451804   0.68836161 
   29740    -1.861267     1.452606    2.3683483   0.68731421 
   29750   -1.8659318    1.4487845    2.3369471   0.68617668 
   29760   -1.8705612    1.4456193     2.290547   0.68495349 
   29770   -1.8720081    1.4366881    2.2630502   0.68365221 
   29780   -1.8729899    1.4186842    2.2671974   0.68227716 
   29790   -1.8684237    1.4001695    2.2812136   0.68082699 
   29800   -1.8613388    1.3867059    2.2823402   0.67929859 
   29810   -1.8495028    1.3828998     2.257296   0.67769107 
   29820   -1.8329348    1.3990101    2.1695439   0.67600945 
   29830   -1.8111845    1.4322889    2.0332932   0.67427051 
   29840   -1.7794506     1.462517    1.9320497   0.67249951 
   29850   -1.7427679    1.4848326    1.8754965   0.67071641 
   29860   -1.7046636    1.5181621    1.7865762   0.66893418 
   29870   -1.6651065    1.5676651    1.6468775   0.66717122 
   29880   -1.6240791    1.6137796    1.5317178   0.66545445 
   29890   -1.5895853    1.6369478     1.505243   0.66380652 
   29900   -1.5604652    1.6350146    1.5760739   0.66223347 
   29910   -1.5385606    1.6187633    1.6980382   0.66072311 
   29920   -1.5215969    1.5921144    1.8526411   0.65925228 
   29930   -1.5093646    1.5526565    2.0393073   0.65779064 
   29940   -1.4992135    1.5208913    2.1776901   0.65630259 
   29950   -1.4915293    1.5311252    2.1385188   0.65476292 
   29960   -1.4842327    1.5705511    1.9717905   0.65317815 
   29970   -1.4814884    1.6060545    1.7960211   0.65157923 
   29980   -1.4810904    1.6380623    1.6186152   0.65000124 
   29990   -1.4833489    1.6734766    1.4206631   0.64848038 
   30000   -1.4902506    1.7005253    1.2479894     0.647056 
Loop time of 5.33404 on 8 procs for 30000 steps with 125 atoms

Performance: 485935.533 tau/day, 5624.254 timesteps/s
114.2% CPU use with 1 MPI tasks x 8 OpenMP threads

MPI task timing breakdown:
Section |  min time  |  avg time  |  max time  |%varavg| %total
---------------------------------------------------------------
Pair    | 1.8146     | 1.8146     | 1.8146     |   0.0 | 34.02
Neigh   | 0.0043058  | 0.0043058  | 0.0043058  |   0.0 |  0.08
Comm    | 0.14217    | 0.14217    | 0.14217    |   0.0 |  2.67
Output  | 0.064425   | 0.064425   | 0.064425   |   0.0 |  1.21
Modify  | 3.2963     | 3.2963     | 3.2963     |   0.0 | 61.80
Other   |            | 0.01222    |            |       |  0.23

Nlocal:        125.000 ave         125 max         125 min
Histogram: 1 0 0 0 0 0 0 0 0 0
Nghost:        2014.00 ave        2014 max        2014 min
Histogram: 1 0 0 0 0 0 0 0 0 0
Neighs:        15811.0 ave       15811 max       15811 min
Histogram: 1 0 0 0 0 0 0 0 0 0

Total # of neighbors = 15811
Ave neighs/atom = 126.48800
Neighbor list builds = 101
Dangerous builds = 0

variable avedens equal f_aves[1]
variable avetemp equal f_aves[2]
variable avepress equal f_aves[3]
variable errdens equal sqrt(f_aves[4]-f_aves[1]*f_aves[1])
variable errtemp equal sqrt(f_aves[5]-f_aves[2]*f_aves[2])
variable errpress equal sqrt(f_aves[6]-f_aves[3]*f_aves[3])

print "Averages"
Averages
print "--------"
--------
print "Density: ${avedens}"
Density: 0.68934012698999
print "Stderr: ${errdens}"
Stderr: 0.021198816058506
print "Temperature: ${avetemp}"
Temperature: 1.50191401580607
print "Stderr: ${errtemp}"
Stderr: 0.107809375408048
print "Pressure: ${avepress}"
Pressure: 2.00017107877754
print "Stderr: ${errpress}"
Stderr: 0.485694668690765
ERROR on proc 0: Cannot open input script npt_1.5_3: No such file or directory (src/input.cpp:296)
clear # Clear any previous runs
  using 8 OpenMP thread(s) per MPI task

package omp 8 # For parallelisation.
using multi-threaded neighbor list subroutines


### DEFINE SIMULATION BOX GEOMETRY ###
lattice sc 0.8
Lattice spacing in x,y,z = 1.0772173 1.0772173 1.0772173
region box block 0 5 0 5 0 5
create_box 1 box
Created orthogonal box = (0.0000000 0.0000000 0.0000000) to (5.3860867 5.3860867 5.3860867)
  1 by 1 by 1 MPI processor grid
create_atoms 1 box
Created 125 atoms
  create_atoms CPU = 0.001 seconds

### DEFINE PHYSICAL PROPERTIES OF ATOMS ###
mass 1 1.0
pair_style lj/cut/omp 2.5
pair_coeff 1 1 1.0 1.0
neighbor 2.0 bin

### SPECIFY THE REQUIRED THERMODYNAMIC STATE ###
variable T equal 1.5
variable p equal 3
variable timestep equal 0.001

log ${T}_${p}_NpT.log # specify the log file name. Can overwrite if desired
log 1.5_${p}_NpT.log 
log 1.5_3_NpT.log 
