
### SPECIFY THE NUMBER OF PRODUCTION STEPS ###
variable Nprod equal 30000

### ASSIGN ATOMIC VELOCITIES ###
velocity all create ${T} 12345 dist gaussian rot yes mom yes
velocity all create 1.75 12345 dist gaussian rot yes mom yes

### SPECIFY ENSEMBLE ###
timestep ${timestep}
timestep 0.001
fix nve all nve

### THERMODYNAMIC OUTPUT CONTROL ###
thermo_style custom time etotal temp press
thermo 10

### RECORD TRAJECTORY ###
dump traj all custom 1000 traj.dump id x y z

### SPECIFY TIMESTEP ###

### RUN SIMULATION TO MELT CRYSTAL ###
run 10000
Last active /omp style is pair_style lj/cut/omp
Neighbor list info ...
  update every 1 steps, delay 10 steps, check yes
  max neighbors/atom: 2000, page size: 100000
  master list distance cutoff = 4.5
  ghost atom cutoff = 4.5
  binsize = 2.25, bins = 3 3 3
  1 neighbor lists, perpetual/occasional/extra = 1 0 0
  (1) pair lj/cut/omp, perpetual
      attributes: half, newton on, omp
      pair build: half/bin/atomonly/newton/omp
      stencil: half/bin/3d/newton
      bin: standard
Per MPI rank memory allocation (min/avg/max) = 10.63 | 10.63 | 10.63 Mbytes
Time TotEng Temp Press 
           0   -2.6607711         1.75    1.0935632 
        0.01   -2.6607794    1.7092518    1.3202905 
        0.02    -2.659612    1.5837927    2.0088122 
        0.03   -2.6518859    1.3765908    3.1288056 
        0.04   -2.6420134    1.1263068    4.4584162 
        0.05     -2.63906   0.92654174    5.5206231 
        0.06   -2.6389502   0.85853279     5.929199 
        0.07   -2.6366745   0.90523862     5.761016 
        0.08   -2.6361986   0.99449496    5.3480743 
        0.09   -2.6339839    1.0738529    4.9567536 
         0.1   -2.6331857      1.13032    4.6613308 
        0.11   -2.6335674    1.1731897    4.4308344 
        0.12   -2.6326462     1.213059    4.2226455 
        0.13   -2.6321214    1.2574498    3.9966669 
        0.14   -2.6326463     1.309461    3.7333987 
        0.15   -2.6313422    1.3674767    3.4409685 
        0.16   -2.6289936    1.4288825    3.1276223 
        0.17   -2.6288603    1.4928489    2.7917088 
        0.18   -2.6295227    1.5579674    2.4444844 
        0.19   -2.6294058    1.6166563    2.1279545 
         0.2    -2.629418    1.6568153    1.9022538 
        0.21   -2.6285039    1.6702422     1.812758 
        0.22   -2.6274514    1.6579195    1.8579115 
        0.23   -2.6267947     1.628542    1.9988084 
        0.24   -2.6271842    1.5900086    2.1963592 
        0.25   -2.6279617    1.5492188    2.4160819 
        0.26   -2.6284837    1.5141872     2.617789 
        0.27   -2.6286225    1.4874398    2.7844443 
        0.28   -2.6274454    1.4651904     2.928117 
        0.29    -2.628606    1.4505045    3.0247463 
         0.3   -2.6282098    1.4553259    3.0259668 
        0.31    -2.629275    1.4810505    2.9241468 
        0.32   -2.6294311    1.5069316    2.8228282 
        0.33   -2.6300763    1.5085109    2.8350684 
        0.34   -2.6303027    1.4925086    2.9355691 
        0.35   -2.6322725    1.4843164    3.0090808 
        0.36    -2.631504    1.4769892    3.0927031 
        0.37   -2.6318903    1.4566899    3.2410052 
        0.38   -2.6316136    1.4302911      3.42309 
        0.39   -2.6310845    1.4133571    3.5618306 
         0.4   -2.6300402    1.4136104    3.6157444 
        0.41   -2.6304374    1.4293004    3.5858888 
        0.42   -2.6295347    1.4539409    3.5064999 
        0.43   -2.6279745    1.4746006    3.4365936 
        0.44   -2.6297894    1.4850136    3.3990995 
        0.45   -2.6318792     1.492274    3.3695257 
        0.46   -2.6335883    1.4947874    3.3574752 
        0.47   -2.6339728    1.4835248    3.4041226 
        0.48   -2.6329074     1.469152    3.4610846 
        0.49   -2.6323962      1.47002    3.4434674 
         0.5   -2.6322718    1.4799461    3.3806217 
        0.51   -2.6325452    1.4895814    3.3217149 
        0.52   -2.6315203    1.4823896    3.3512372 
        0.53   -2.6305973    1.4429278    3.5388604 
        0.54   -2.6303175    1.3832384    3.8265088 
        0.55   -2.6306945    1.3297049    4.0864112 
        0.56   -2.6308167    1.3036596    4.2135557 
        0.57   -2.6322734    1.3133809    4.1631728 
        0.58    -2.631358    1.3414287    4.0194201 
        0.59   -2.6309653    1.3818835    3.8129747 
         0.6    -2.632161    1.4265576    3.5882781 
        0.61   -2.6317712    1.4534538    3.4527788 
        0.62   -2.6314946    1.4593494     3.417915 
        0.63   -2.6325401    1.4596117    3.4094018 
        0.64   -2.6326815    1.4574801    3.4102129 
        0.65    -2.632655    1.4514713    3.4202935 
        0.66   -2.6308328    1.4616468    3.3543059 
        0.67   -2.6299495    1.4804176    3.2468008 
        0.68   -2.6306047    1.4795621     3.227867 
        0.69   -2.6317559    1.4570999    3.3088709 
         0.7   -2.6308202    1.4368673    3.3832756 
        0.71   -2.6300412    1.4403649    3.3488313 
        0.72   -2.6296805    1.4609515    3.2375748 
        0.73   -2.6295623    1.4712494    3.1784236 
        0.74   -2.6286368    1.4579483    3.2387999 
        0.75   -2.6286248    1.4289441    3.3813112 
        0.76   -2.6278302    1.3974013    3.5428254 
        0.77   -2.6293769    1.3819058    3.6262489 
        0.78   -2.6305731    1.4020166    3.5465489 
        0.79   -2.6308628    1.4396231    3.3892042 
         0.8   -2.6303412     1.463559    3.3011092 
        0.81   -2.6296817    1.4668761    3.3194443 
        0.82   -2.6296887    1.4537461    3.4259012 
        0.83   -2.6282574    1.4189449    3.6415622 
        0.84    -2.628229    1.3647932    3.9394177 
        0.85    -2.626231    1.3262995    4.1539151 
        0.86   -2.6270253    1.3396758    4.1059983 
        0.87   -2.6258946    1.3939553    3.8554597 
        0.88   -2.6253944    1.4448156    3.6118807 
        0.89   -2.6264368    1.4620822    3.5260115 
         0.9   -2.6265478    1.4454406    3.6109707 
        0.91   -2.6270543    1.4113741    3.7861481 
        0.92    -2.627046     1.379708    3.9523267 
        0.93   -2.6278355     1.362417    4.0419031 
        0.94   -2.6290102    1.3584758    4.0530541 
        0.95     -2.62849    1.3684699    3.9867726 
        0.96   -2.6287657    1.3897876    3.8569982 
        0.97   -2.6279912    1.4063449    3.7460658 
        0.98   -2.6278459     1.406977    3.7064156 
        0.99   -2.6282156    1.4049234    3.6808089 
           1   -2.6284797    1.4175859    3.5913289 
        1.01   -2.6287496    1.4411737    3.4521224 
        1.02   -2.6273111    1.4663221    3.3076804 
        1.03   -2.6279685    1.4918891    3.1603605 
        1.04   -2.6264155    1.5114017    3.0498924 
        1.05   -2.6257582    1.5153109    3.0161974 
        1.06   -2.6262603     1.508789    3.0348206 
        1.07   -2.6265105    1.5113036    3.0178826 
        1.08    -2.626138    1.5287251    2.9395982 
        1.09   -2.6261543    1.5432924    2.8817524 
         1.1   -2.6253816    1.5390124    2.9239053 
        1.11   -2.6252477    1.5080832    3.1003697 
        1.12    -2.624704    1.4586364    3.3718128 
        1.13   -2.6267769     1.418703    3.6006668 
        1.14   -2.6258798    1.4065494    3.7061046 
        1.15     -2.62589    1.4105546    3.7264991 
        1.16   -2.6247156     1.418115    3.7181255 
        1.17   -2.6240604    1.4265784    3.6899164 
        1.18   -2.6247056    1.4363297    3.6403111 
        1.19    -2.625088    1.4525129    3.5514558 
         1.2    -2.624836     1.482071    3.3978272 
        1.21   -2.6249853    1.5127396    3.2387377 
        1.22   -2.6260248     1.526259    3.1617479 
        1.23   -2.6249658    1.5244688    3.1692585 
        1.24    -2.625618    1.5194833    3.2035635 
        1.25   -2.6252429    1.5133965    3.2606666 
        1.26   -2.6265683    1.4940146    3.3902422 
        1.27   -2.6266991    1.4495186     3.644947 
        1.28   -2.6281045    1.3878893     3.974136 
        1.29   -2.6293802    1.3471979    4.1963631 
         1.3     -2.62863    1.3571501    4.1728663 
        1.31   -2.6271103    1.3887133    4.0293878 
        1.32   -2.6271187    1.3969153    3.9683314 
        1.33   -2.6260121    1.3770369    4.0170653 
        1.34   -2.6258469    1.4067541    3.8323494 
        1.35   -2.6253228    1.4983125    3.3726885 
        1.36    -2.624619    1.5364574     3.157878 
        1.37   -2.6247126    1.5317388    3.1580653 
        1.38   -2.6235357    1.5119661    3.2550944 
        1.39   -2.6236527    1.4821818    3.4144233 
         1.4   -2.6232472    1.4538694    3.5789286 
        1.41   -2.6235221    1.4402928     3.680579 
        1.42   -2.6240612    1.4316569    3.7588286 
        1.43   -2.6236671    1.4130821    3.8801355 
        1.44   -2.6236579    1.3860759    4.0355281 
        1.45   -2.6239069    1.3603334    4.1802136 
        1.46   -2.6242893    1.3493208    4.2516175 
        1.47   -2.6240452    1.3603404    4.2180029 
        1.48   -2.6241973    1.3764007    4.1549553 
        1.49   -2.6245938    1.3769594    4.1573007 
         1.5   -2.6245809    1.3573975    4.2469354 
        1.51   -2.6263806    1.3356566    4.3352476 
        1.52    -2.626761    1.3412211    4.2893039 
        1.53   -2.6271561     1.388691    4.0405211 
        1.54   -2.6265541    1.4664532    3.6524779 
        1.55   -2.6261766    1.5259122    3.3531868 
        1.56    -2.624337    1.5439354    3.2613784 
        1.57   -2.6255042    1.5264234    3.3483029 
        1.58   -2.6253603    1.4840844    3.5677505 
        1.59   -2.6258736    1.4333249     3.832934 
         1.6   -2.6266669    1.3872766    4.0733944 
        1.61   -2.6237827    1.3460523    4.2810869 
        1.62   -2.6241396    1.3267756    4.3576956 
        1.63   -2.6246691    1.3582626    4.1770514 
        1.64   -2.6247215    1.4301964    3.7954582 
        1.65   -2.6246164      1.49245    3.4547867 
        1.66   -2.6238133    1.5144659    3.3107238 
        1.67   -2.6230138    1.5071701    3.3214749 
        1.68   -2.6240545    1.4882624    3.4009918 
        1.69   -2.6236638    1.4630206    3.5204818 
         1.7   -2.6244303    1.4329527    3.6570169 
        1.71   -2.6253234    1.4127534     3.737512 
        1.72    -2.626232    1.4212504    3.6747283 
        1.73   -2.6262473    1.4611981    3.4624846 
        1.74   -2.6266654    1.5129824    3.1976944 
        1.75   -2.6266755    1.5476235    3.0235045 
        1.76   -2.6277045    1.5536905     2.996579 
        1.77   -2.6287374    1.5421762     3.069362 
        1.78   -2.6279543    1.5256473    3.1819143 
        1.79   -2.6292661    1.5061573     3.310529 
         1.8   -2.6275786    1.4821997    3.4635567 
        1.81   -2.6261378    1.4510366    3.6411804 
        1.82   -2.6267617    1.4240006    3.7825299 
        1.83   -2.6266451    1.4263279    3.7768234 
        1.84   -2.6265409    1.4464512    3.6757464 
        1.85   -2.6269237    1.4569891    3.6061723 
        1.86   -2.6271759     1.458386     3.574853 
        1.87   -2.6261367    1.4571402    3.5589437 
        1.88   -2.6237735    1.4549962    3.5513272 
        1.89   -2.6231262    1.4620185    3.5036072 
         1.9   -2.6231384    1.4720604    3.4462611 
        1.91   -2.6234041    1.4715696    3.4415339 
        1.92   -2.6239196    1.4561746    3.5071012 
        1.93   -2.6241591    1.4377157    3.5858838 
        1.94    -2.622981    1.4378635    3.5790784 
        1.95   -2.6219376    1.4628929    3.4568301 
        1.96   -2.6228831    1.5049325    3.2591038 
        1.97   -2.6223706    1.5335942    3.1345179 
        1.98   -2.6222237    1.5331744     3.154223 
        1.99   -2.6240349    1.5150367    3.2622996 
           2   -2.6229781    1.4959429    3.3831742 
        2.01   -2.6248142    1.4889351    3.4430543 
        2.02   -2.6252372    1.4868974     3.479968 
        2.03   -2.6248603     1.464409    3.6084733 
        2.04   -2.6270526    1.4143672    3.8540208 
        2.05   -2.6279247    1.3699539    4.0685653 
        2.06   -2.6272832    1.3751805    4.0517737 
        2.07   -2.6279898    1.4191622    3.8496892 
        2.08   -2.6279999    1.4537898     3.688203 
        2.09   -2.6281241    1.4633881     3.644528 
         2.1   -2.6275911    1.4551349    3.6883434 
        2.11   -2.6271878    1.4438582    3.7481059 
        2.12   -2.6270653    1.4424052    3.7658648 
        2.13    -2.627477    1.4383746    3.7978735 
        2.14   -2.6273001    1.4144892    3.9179945 
        2.15   -2.6264775    1.4062575    3.9603583 
        2.16    -2.627278    1.4463793    3.7693948 
        2.17   -2.6277096    1.5157289    3.4377541 
        2.18    -2.626955    1.5719023    3.1722607 
        2.19   -2.6257881    1.5835856    3.1289122 
         2.2   -2.6268298    1.5394757    3.3603841 
        2.21   -2.6266639    1.4486234    3.8206647 
        2.22   -2.6275147    1.3544573    4.2892604 
        2.23    -2.628036    1.3184495    4.4732303 
        2.24   -2.6278153     1.346849    4.3347945 
        2.25   -2.6280945    1.4007877    4.0491366 
        2.26   -2.6282237    1.4579588    3.7316452 
        2.27   -2.6273165    1.5128371    3.4249719 
        2.28   -2.6282421    1.5524967    3.1953577 
        2.29   -2.6266768    1.5633221    3.1194774 
         2.3   -2.6267978     1.541955     3.207971 
        2.31   -2.6272966     1.498746     3.410785 
        2.32   -2.6276728    1.4561382    3.6176901 
        2.33   -2.6251929    1.4317108    3.7436425 
        2.34   -2.6257167    1.4265948      3.76726 
        2.35   -2.6251982    1.4373243    3.7091204 
        2.36   -2.6250817    1.4583827    3.5950359 
        2.37    -2.625872    1.4764112    3.4878976 
        2.38   -2.6252074    1.4833539     3.430063 
        2.39   -2.6261147    1.4863631    3.3860672 
         2.4   -2.6252072    1.4906127    3.3386884 
        2.41   -2.6266421    1.4894731     3.310773 
        2.42   -2.6272841    1.4829862    3.3080609 
        2.43   -2.6280641    1.4790135    3.2957691 
        2.44   -2.6284609    1.4797698    3.2680476 
        2.45   -2.6284722    1.4803027    3.2525382 
        2.46   -2.6283495      1.47228    3.2904675 
        2.47   -2.6286087    1.4524561    3.3941524 
        2.48   -2.6282059    1.4274087    3.5279442 
        2.49   -2.6284594    1.4115739    3.6158481 
         2.5   -2.6289838    1.4169316    3.6006331 
        2.51   -2.6303005    1.4425613    3.4881933 
        2.52   -2.6308445    1.4746803    3.3503171 
        2.53   -2.6307228    1.4909081    3.2940935 
        2.54   -2.6300595    1.4820229    3.3640001 
        2.55   -2.6291394    1.4576422    3.5142555 
        2.56   -2.6290029    1.4252866    3.7014151 
        2.57   -2.6282058    1.3925289    3.8844236 
        2.58   -2.6275384    1.3736994    3.9906589 
        2.59   -2.6279301    1.3822241    3.9571982 
         2.6   -2.6278217    1.4147881    3.8071551 
        2.61   -2.6281048     1.447659    3.6554963 
        2.62   -2.6261523     1.457327    3.6197817 
        2.63   -2.6266606    1.4380562     3.718276 
        2.64    -2.626755    1.4085911    3.8636016 
        2.65   -2.6273986    1.4066107    3.8777278 
        2.66   -2.6273061    1.4413627    3.7189572 
        2.67   -2.6268025    1.4788194    3.5408995 
        2.68   -2.6253576    1.4987667    3.4413216 
        2.69   -2.6254876    1.5056299    3.4020499 
         2.7   -2.6262801    1.5002293    3.4217687 
        2.71   -2.6258726    1.4783704    3.5189908 
        2.72   -2.6258535    1.4551697    3.6198549 
        2.73   -2.6280796      1.44856    3.6391796 
        2.74   -2.6275689    1.4518801     3.613981 
        2.75   -2.6273004    1.4558303    3.5823291 
        2.76   -2.6284746    1.4685749    3.5090774 
        2.77   -2.6287602    1.4895764     3.404736 
        2.78    -2.626673    1.4963094    3.3758087 
        2.79   -2.6270413    1.4862893    3.4291242 
         2.8   -2.6267814    1.4750152    3.5009015 
        2.81     -2.62653     1.461865    3.5884677 
        2.82   -2.6274348    1.4410423    3.7087043 
        2.83   -2.6280648    1.4251242    3.8005424 
        2.84   -2.6279368    1.4342075    3.7710538 
        2.85   -2.6270471    1.4663095    3.6306986 
        2.86    -2.627723    1.4977815     3.487724 
        2.87   -2.6281115    1.5066616    3.4484133 
        2.88    -2.628484    1.4942935    3.5065497 
        2.89   -2.6282108    1.4790417    3.5765812 
         2.9   -2.6286125    1.4727188    3.5990631 
        2.91   -2.6288817    1.4684433    3.6034724 
        2.92   -2.6292602     1.460784    3.6142369 
        2.93   -2.6311018     1.456622    3.6034011 
        2.94   -2.6321592    1.4437455     3.634136 
        2.95   -2.6318665    1.4122495    3.7551351 
        2.96   -2.6318454    1.3875252    3.8526016 
        2.97    -2.632118    1.3891819    3.8381196 
        2.98    -2.631364    1.4041025    3.7715002 
        2.99   -2.6305781    1.4058604    3.7679338 
           3   -2.6301681    1.3968465    3.8140159 
        3.01   -2.6313361    1.3957508    3.8195443 
        3.02   -2.6312066    1.4118538    3.7441972 
        3.03   -2.6314865    1.4430403    3.5983954 
        3.04   -2.6305889    1.4713675     3.473449 
        3.05   -2.6302021    1.4776494    3.4621729 
        3.06   -2.6291526    1.4546716    3.6032556 
        3.07   -2.6278266    1.4089844    3.8617963 
        3.08   -2.6279271    1.3635352    4.1193832 
        3.09   -2.6264871    1.3460086    4.2420669 
         3.1   -2.6254503    1.3629442    4.1875854 
        3.11   -2.6254674    1.4047844    3.9989374 
        3.12    -2.625233    1.4527251    3.7735491 
        3.13   -2.6264228    1.4816605    3.6347199 
        3.14   -2.6272014    1.4781564    3.6538389 
        3.15   -2.6273153    1.4494527    3.7973699 
        3.16   -2.6267714    1.4166063    3.9610839 
        3.17   -2.6258552    1.4011812     4.037289 
        3.18   -2.6250842    1.4058559    4.0085253 
        3.19   -2.6254868    1.4171356    3.9366759 
         3.2   -2.6260019    1.4252595    3.8738178 
        3.21   -2.6265191    1.4374044    3.7955262 
        3.22   -2.6281083     1.455601    3.6958435 
        3.23   -2.6273255    1.4610207     3.664255 
        3.24   -2.6264073    1.4507261    3.7095662 
        3.25   -2.6263986    1.4315676    3.7957323 
        3.26   -2.6278107    1.4170597    3.8562643 
        3.27   -2.6283487    1.4253254    3.8116514 
        3.28   -2.6290286    1.4418064    3.7262437 
        3.29   -2.6289079    1.4386316    3.7311337 
         3.3   -2.6274552    1.4069794    3.8721916 
        3.31   -2.6271742    1.3624272    4.0778332 
        3.32   -2.6266436    1.3274431    4.2483562 
        3.33   -2.6250895     1.311093    4.3417202 
        3.34   -2.6241905    1.3043427    4.3919046 
        3.35   -2.6252152     1.297941    4.4328232 
        3.36   -2.6257285    1.3067521    4.3978044 
        3.37   -2.6248406    1.3371843    4.2580344 
        3.38   -2.6247205    1.3673653    4.1081923 
        3.39   -2.6260133    1.3837601    4.0097563 
         3.4   -2.6256032    1.3967296    3.9211308 
        3.41   -2.6233651    1.4277722    3.7455936 
        3.42   -2.6248388    1.4918475     3.413049 
        3.43   -2.6256719    1.5528654    3.1012622 
        3.44   -2.6255291    1.5629507    3.0343543 
        3.45   -2.6265409     1.526376    3.1930484 
        3.46   -2.6261254    1.4789354     3.414201 
        3.47   -2.6253418     1.452102    3.5460735 
        3.48   -2.6248576     1.449107    3.5710499 
        3.49   -2.6246201    1.4364456    3.6429731 
         3.5   -2.6241132    1.3883106    3.8825608 
        3.51   -2.6250869    1.3051615    4.2773219 
        3.52   -2.6252962    1.2707921     4.448701 
        3.53   -2.6256589    1.3222837    4.2262004 
        3.54   -2.6251278    1.3677924    4.0185717 
        3.55   -2.6251141    1.3891217    3.9157663 
        3.56   -2.6238023    1.3929204    3.8940667 
        3.57   -2.6242001    1.3839355    3.9251249 
        3.58   -2.6240534    1.3627063    4.0041347 
        3.59   -2.6242892    1.3502629    4.0299469 
         3.6   -2.6246966     1.371795    3.8889685 
        3.61    -2.624714    1.4148417    3.6405226 
        3.62   -2.6256255    1.4573828    3.3899211 
        3.63   -2.6252277    1.4933576    3.1793949 
        3.64   -2.6245875    1.5186374    3.0350559 
        3.65   -2.6242111    1.5173429    3.0313201 
        3.66   -2.6257694    1.4773312    3.2158352 
        3.67   -2.6254481    1.4180077     3.494101 
        3.68   -2.6254305    1.3993831    3.5814041 
        3.69   -2.6239126    1.4407932    3.3897796 
         3.7   -2.6243417    1.4956017     3.128859 
        3.71   -2.6240846     1.521993    3.0030216 
        3.72   -2.6249798    1.5090962    3.0647518 
        3.73   -2.6256032    1.4731498    3.2398307 
        3.74   -2.6275451    1.4449747    3.3803666 
        3.75   -2.6263845    1.4411295    3.4151947 
        3.76   -2.6282275     1.450705    3.3841351 
        3.77   -2.6296652    1.4565464    3.3725156 
        3.78   -2.6307086    1.4547544    3.4005673 
        3.79   -2.6294202    1.4448523    3.4729403 
         3.8   -2.6286461     1.417009    3.6235027 
        3.81   -2.6295179    1.3738681    3.8278453 
        3.82   -2.6300101    1.3605007    3.8798505 
        3.83   -2.6295295    1.4049179    3.6553148 
        3.84   -2.6291702    1.4687293    3.3309432 
        3.85   -2.6279902    1.5137937    3.0928115 
        3.86   -2.6274614    1.5355011    2.9722081 
        3.87   -2.6287735    1.5358106    2.9640557 
        3.88   -2.6298149    1.5092659    3.0940283 
        3.89   -2.6303108     1.461162    3.3322845 
         3.9   -2.6302846    1.4174235    3.5553116 
        3.91   -2.6293807    1.4010675    3.6542877 
        3.92   -2.6303145    1.4092007    3.6345193 
        3.93   -2.6303206    1.4267917    3.5682932 
        3.94   -2.6302018    1.4455068    3.4946739 
        3.95   -2.6298154    1.4546007    3.4632926 
        3.96   -2.6307127    1.4505852    3.4853025 
        3.97   -2.6304443    1.4485109    3.4944163 
        3.98   -2.6296601    1.4578242    3.4449781 
        3.99    -2.629141    1.4799961    3.3314554 
           4   -2.6285105    1.5091553    3.1868576 
        4.01   -2.6266979    1.5228416    3.1182494 
        4.02    -2.625641    1.5059001    3.1910014 
        4.03   -2.6275625    1.4726072    3.3331598 
        4.04   -2.6258606    1.4562167    3.4016965 
        4.05   -2.6258861    1.4643741    3.3518649 
        4.06   -2.6273299    1.4785388    3.2689977 
        4.07   -2.6273225    1.4888954     3.206619 
        4.08   -2.6273198    1.5002852     3.145155 
        4.09   -2.6286445    1.5101827    3.0956882 
         4.1   -2.6292894    1.5042962     3.122694 
        4.11   -2.6305737    1.4888908     3.192487 
        4.12   -2.6301807    1.4828484    3.2214199 
        4.13   -2.6284945    1.4885907    3.1970234 
        4.14   -2.6288912    1.4966833    3.1587363 
        4.15   -2.6312539    1.4992982    3.1479479 
        4.16   -2.6304766    1.4861134    3.2238554 
        4.17   -2.6304723    1.4539648    3.3957768 
        4.18   -2.6286332    1.4094219    3.6346964 
        4.19   -2.6271777    1.3691301    3.8571349 
         4.2   -2.6269243    1.3520429    3.9755038 
        4.21   -2.6263025    1.3513627    4.0242987 
        4.22   -2.6269677     1.340147    4.1210936 
        4.23   -2.6286475    1.3076277    4.3081227 
        4.24   -2.6293942    1.2728983    4.4907141 
        4.25   -2.6289967    1.2698585    4.5067794 
        4.26   -2.6300654    1.3032602    4.3275281 
        4.27   -2.6289038    1.3505401    4.0647212 
        4.28   -2.6290268    1.3992662    3.7786121 
        4.29   -2.6298173    1.4511013    3.4757368 
         4.3   -2.6306194    1.4963171    3.2139061 
        4.31   -2.6291765    1.5153737    3.0935424 
        4.32   -2.6290163    1.5128002    3.0921403 
        4.33   -2.6284932    1.5103186    3.1131399 
        4.34    -2.628643    1.5083649    3.1472607 
        4.35    -2.628378    1.4907372    3.2614672 
        4.36   -2.6280969     1.461468    3.4297983 
        4.37   -2.6276999    1.4391316    3.5615525 
        4.38   -2.6265276    1.4302181    3.6227525 
        4.39   -2.6270431    1.4301766    3.6291161 
         4.4   -2.6254743    1.4410431    3.5827312 
        4.41   -2.6265334    1.4626589    3.4857525 
        4.42   -2.6278623    1.4777124    3.4281732 
        4.43   -2.6272141    1.4656524    3.5097841 
        4.44    -2.625365    1.4257578    3.7285634 
        4.45   -2.6256096    1.3810487    3.9664833 
        4.46   -2.6280792    1.3525106    4.1186272 
        4.47   -2.6284754    1.3507231    4.1395538 
        4.48   -2.6290261    1.3705851    4.0508869 
        4.49   -2.6281294    1.3854286    3.9792221 
         4.5   -2.6281179    1.3787433    3.9971074 
        4.51   -2.6293983    1.3611697    4.0527483 
        4.52    -2.629376    1.3584713     4.028359 
        4.53   -2.6286087    1.3891896    3.8387271 
        4.54   -2.6285088     1.436606    3.5630893 
        4.55   -2.6281289    1.4672954    3.3648823 
        4.56   -2.6273412    1.4671777    3.3193937 
        4.57   -2.6269263    1.4398179    3.4127358 
        4.58   -2.6270187    1.4091626    3.5321765 
        4.59   -2.6258563    1.4099116    3.5187622 
         4.6   -2.6258823     1.433037    3.4024961 
        4.61   -2.6254947    1.4535307    3.2971346 
        4.62   -2.6274504    1.4624641    3.2420369 
        4.63   -2.6279704    1.4617427    3.2390817 
        4.64   -2.6277072    1.4545183    3.2774906 
        4.65   -2.6270625    1.4418545    3.3562704 
        4.66   -2.6261566    1.4185061    3.4987697 
        4.67   -2.6279639    1.3852626    3.6904219 
        4.68   -2.6278267    1.3635465    3.8346256 
        4.69   -2.6261436    1.3635047    3.8773679 
         4.7   -2.6254984    1.3741438    3.8581441 
        4.71   -2.6253543    1.3885404    3.8062491 
        4.72   -2.6249566    1.4157707    3.6839635 
        4.73   -2.6251057    1.4563325    3.4935345 
        4.74   -2.6243333     1.491662    3.3287957 
        4.75   -2.6234229    1.5088095     3.255136 
        4.76    -2.622912    1.5049303    3.2893465 
        4.77   -2.6231838    1.4718926    3.4642451 
        4.78   -2.6242071    1.4095279     3.769368 
        4.79   -2.6250713    1.3509016    4.0435995 
         4.8   -2.6249305    1.3516788    4.0336128 
        4.81   -2.6229336    1.4142961    3.7401512 
        4.82   -2.6223129    1.4562637    3.5415444 
        4.83   -2.6233347    1.4371224    3.6304958 
        4.84   -2.6240526     1.382391    3.8914829 
        4.85   -2.6236425    1.3564203    4.0254361 
        4.86   -2.6230165    1.3822445    3.9188643 
        4.87   -2.6233186    1.4271701    3.7191855 
        4.88   -2.6231895    1.4461797    3.6395585 
        4.89   -2.6229266    1.4253147     3.749541 
         4.9   -2.6233023    1.3684226    4.0264036 
        4.91   -2.6212826    1.3001177     4.350161 
        4.92     -2.62297    1.2785191    4.4401147 
        4.93   -2.6245971    1.3130919    4.2584209 
        4.94   -2.6246059    1.3505399    4.0520213 
        4.95   -2.6252375    1.3716669    3.9141663 
        4.96   -2.6264204    1.3860799    3.8091923 
        4.97   -2.6261694    1.3863733    3.7731043 
        4.98   -2.6265215    1.3723771    3.7991736 
        4.99   -2.6257181    1.3841794    3.7109566 
           5    -2.626025    1.4385803    3.4352159 
        5.01   -2.6264401    1.4911017      3.17893 
        5.02   -2.6263109    1.5094069    3.0956702 
        5.03   -2.6251239    1.4924721    3.1921178 
        5.04   -2.6261564     1.455836    3.3861185 
        5.05   -2.6268019    1.4166645    3.5939571 
        5.06   -2.6262767     1.384849    3.7633349 
        5.07   -2.6256069    1.3640753    3.8704579 
        5.08   -2.6261181    1.3640598    3.8691395 
        5.09   -2.6250723    1.3907151    3.7422135 
         5.1   -2.6257487    1.4368002    3.5269682 
        5.11     -2.62525     1.473531    3.3678086 
        5.12   -2.6244667    1.4752971    3.3840564 
        5.13   -2.6237838    1.4437504    3.5650518 
        5.14   -2.6242858    1.4064688     3.775715 
        5.15   -2.6259883    1.3854073    3.9062932 
        5.16   -2.6254757    1.3791714    3.9602345 
        5.17   -2.6257442    1.3794559    3.9666774 
        5.18   -2.6257349    1.3835128    3.9389565 
        5.19   -2.6257286    1.4036353    3.8244125 
         5.2   -2.6257712    1.4414668    3.6234193 
        5.21   -2.6264345    1.4607895    3.5043315 
        5.22   -2.6262902    1.4489939    3.5334923 
        5.23   -2.6270749    1.4164253    3.6628757 
        5.24   -2.6275502     1.373783    3.8390138 
        5.25   -2.6258455    1.3695258    3.8466922 
        5.26   -2.6253853    1.4064754    3.6693151 
        5.27   -2.6264134    1.4266615    3.5648343 
        5.28   -2.6283485    1.4297723    3.5389727 
        5.29   -2.6278166    1.4363215    3.5046199 
         5.3   -2.6290136    1.4533875    3.4237543 
        5.31   -2.6294122    1.4612969     3.389013 
        5.32   -2.6293966    1.4499732    3.4449696 
        5.33   -2.6291231    1.4315928    3.5353182 
        5.34   -2.6292526    1.4172385    3.6067566 
        5.35     -2.62912    1.4104185    3.6432784 
        5.36   -2.6297675    1.4126563    3.6362228 
        5.37   -2.6295072    1.4265788    3.5774731 
        5.38   -2.6292605    1.4480595    3.4856007 
        5.39   -2.6292672     1.463166    3.4241769 
         5.4   -2.6290074    1.4609447    3.4446272 
        5.41   -2.6283435    1.4415854    3.5457101 
        5.42   -2.6283323    1.4156873    3.6756653 
        5.43   -2.6278076    1.3958572    3.7772551 
        5.44   -2.6275487    1.3873333    3.8241855 
        5.45   -2.6266347    1.3906143    3.8162648 
        5.46   -2.6282123     1.405148    3.7552042 
        5.47   -2.6274572    1.4177322    3.7139983 
        5.48   -2.6265522    1.4047898    3.7980269 
        5.49   -2.6257479    1.3627947    4.0184417 
         5.5    -2.625965    1.3199922    4.2349935 
        5.51   -2.6266073    1.3173938    4.2539863 
        5.52   -2.6279575    1.3644728    4.0326304 
        5.53   -2.6289082    1.4214272     3.760708 
        5.54   -2.6298196    1.4493735    3.6242173 
        5.55   -2.6296718    1.4431196    3.6541718 
        5.56   -2.6290024    1.4171645     3.781116 
        5.57   -2.6293783    1.3923122    3.9008566 
        5.58   -2.6282168    1.3828458     3.947367 
        5.59   -2.6275795    1.3768032    3.9660697 
         5.6   -2.6258644    1.3614395    4.0123211 
        5.61   -2.6284523    1.3526406    4.0047731 
        5.62   -2.6276758    1.3705893    3.8681824 
        5.63   -2.6273088    1.4085377    3.6343599 
        5.64   -2.6277121     1.443738    3.4144902 
        5.65   -2.6290059    1.4640481    3.2705369 
        5.66   -2.6270408    1.4766549    3.1816866 
        5.67   -2.6275777    1.4880616    3.1118424 
        5.68   -2.6283689    1.4880853    3.1096347 
        5.69   -2.6279608    1.4702375    3.2046987 
         5.7   -2.6259931     1.445895    3.3440785 
        5.71     -2.62769    1.4276708    3.4589133 
        5.72   -2.6273001    1.4182627    3.5417042 
        5.73   -2.6283454    1.4143849    3.5977664 
        5.74   -2.6274319    1.4105127    3.6545719 
        5.75   -2.6267698    1.4044922    3.7156859 
        5.76   -2.6268905    1.4033516    3.7473721 
        5.77   -2.6288542    1.4155661    3.7097952 
        5.78   -2.6279638    1.4368318    3.6316005 
        5.79   -2.6265472    1.4487435    3.5945346 
         5.8   -2.6261353    1.4392388    3.6503945 
        5.81   -2.6259737    1.4328716    3.6896112 
        5.82   -2.6250985    1.4555082     3.598428 
        5.83   -2.6249848     1.474856    3.5190216 
        5.84    -2.623019    1.4672978    3.5666457 
        5.85   -2.6228791    1.4356028    3.7257105 
        5.86   -2.6237727    1.3926002    3.9353327 
        5.87    -2.624273    1.3617305    4.0858067 
        5.88   -2.6240177    1.3632326    4.0835788 
        5.89   -2.6240468    1.3907415    3.9572308 
         5.9   -2.6239411     1.417196    3.8352729 
        5.91   -2.6239432    1.4206219    3.8228351 
        5.92   -2.6240565    1.3994316    3.9296292 
        5.93   -2.6262584    1.3702544    4.0745933 
        5.94   -2.6248242    1.3485452    4.1900392 
        5.95   -2.6249601    1.3358713    4.2532161 
        5.96   -2.6252215    1.3282104    4.2794613 
        5.97   -2.6236426    1.3277575    4.2589241 
        5.98   -2.6235093    1.3464246    4.1324724 
        5.99   -2.6241739     1.386755    3.8936274 
           6   -2.6243087    1.4348752    3.6160064 
        6.01   -2.6251005    1.4805031    3.3578146 
        6.02   -2.6238103    1.5107319    3.1945555 
        6.03   -2.6240769    1.5074498    3.2094983 
        6.04   -2.6244455    1.4660253    3.4256283 
        6.05    -2.625071    1.4104894    3.7269973 
        6.06   -2.6250717    1.3687192    3.9767833 
        6.07   -2.6253244    1.3475213    4.1283595 
        6.08   -2.6238847    1.3536512    4.1462716 
        6.09   -2.6245612    1.3863155    4.0267204 
         6.1   -2.6255006    1.4208076    3.8876972 
        6.11   -2.6247234    1.4296231     3.863237 
        6.12   -2.6251038    1.4060797    3.9834702 
        6.13   -2.6242986    1.3634435    4.1899608 
        6.14   -2.6243996    1.3286545    4.3508376 
        6.15   -2.6242826    1.3271154    4.3485016 
        6.16   -2.6231326    1.3488818    4.2285191 
        6.17   -2.6233905    1.3705748    4.0963338 
        6.18   -2.6248239     1.389731    3.9701901 
        6.19   -2.6257439    1.4074448    3.8531204 
         6.2   -2.6261388    1.4193163     3.769541 
        6.21   -2.6267932    1.4219696    3.7379345 
        6.22   -2.6260004    1.4166449    3.7580345 
        6.23   -2.6257331    1.4121257    3.7872438 
        6.24   -2.6254771    1.4145832    3.7969893 
        6.25   -2.6266592    1.4195932    3.8018117 
        6.26   -2.6269302    1.4189931    3.8390121 
        6.27   -2.6258869    1.4048162    3.9407553 
        6.28   -2.6261292    1.3799931    4.0839926 
        6.29   -2.6270375    1.3630462    4.1813134 
         6.3   -2.6269081    1.3630668    4.1904396 
        6.31   -2.6269031    1.3787925    4.1151063 
        6.32   -2.6275677    1.4087445    3.9674193 
        6.33   -2.6273255    1.4383686    3.8233911 
        6.34    -2.627194    1.4492313    3.7707061 
        6.35   -2.6261406    1.4369254    3.8321728 
        6.36   -2.6246905    1.4117518    3.9551324 
        6.37   -2.6249448     1.389877    4.0548482 
        6.38   -2.6248236    1.3806908    4.0859065 
        6.39   -2.6248324    1.3789444    4.0687732 
         6.4   -2.6270454    1.3804713     4.021594 
        6.41   -2.6275721    1.3888067    3.9399701 
        6.42   -2.6267995    1.3991033    3.8489924 
        6.43   -2.6262812    1.4005053    3.7977151 
        6.44   -2.6265165    1.3932226    3.7862694 
        6.45   -2.6279399    1.4028997    3.7029613 
        6.46   -2.6279669    1.4403141    3.5078476 
        6.47   -2.6262909    1.4810896    3.3138368 
        6.48   -2.6277321    1.5011057    3.2233486 
        6.49   -2.6290331    1.4911186    3.2789459 
         6.5   -2.6277024    1.4597623    3.4339054 
        6.51   -2.6266521    1.4356565    3.5423382 
        6.52   -2.6277077    1.4313369    3.5374605 
        6.53    -2.627957     1.446762    3.4258411 
        6.54   -2.6273297    1.4840676    3.2075884 
        6.55   -2.6282265    1.5210959    2.9852845 
        6.56   -2.6279715    1.5579968    2.7750958 
        6.57   -2.6273387    1.5834857    2.6366687 
        6.58   -2.6272062    1.5753797    2.6716235 
        6.59   -2.6266544    1.5358468    2.8672904 
         6.6   -2.6255798    1.4941699    3.0823094 
        6.61   -2.6249338    1.4761919    3.1898621 
        6.62   -2.6249555    1.4784437    3.2013549 
        6.63     -2.62497    1.4815795     3.207107 
        6.64   -2.6240566    1.4734852    3.2676957 
        6.65   -2.6243151    1.4554649    3.3771041 
        6.66    -2.625755     1.431707    3.5165766 
        6.67   -2.6271917    1.4016147    3.6872544 
        6.68    -2.627301    1.3701058    3.8628245 
        6.69   -2.6262523    1.3570067    3.9494704 
         6.7   -2.6249794    1.3641477    3.9369912 
        6.71   -2.6234267    1.3651057    3.9454777 
        6.72   -2.6243204    1.3487402    4.0210093 
        6.73   -2.6225992    1.3369743    4.0704004 
        6.74   -2.6237855    1.3504674    3.9882885 
        6.75   -2.6245815     1.380102    3.8204221 
        6.76   -2.6250973    1.4108165    3.6405998 
        6.77    -2.626667    1.4410637     3.464444 
        6.78   -2.6270767    1.4634014    3.3382092 
        6.79   -2.6273303    1.4615752    3.3379725 
         6.8   -2.6270602     1.441102    3.4418307 
        6.81   -2.6270724      1.41052    3.6075878 
        6.82   -2.6258801    1.3669786    3.8407879 
        6.83   -2.6267657    1.3286317    4.0428274 
        6.84   -2.6253321    1.3222335     4.090616 
        6.85   -2.6248291    1.3483173    3.9725286 
        6.86   -2.6248451    1.3868475    3.7843865 
        6.87   -2.6251159    1.4194835    3.6201446 
        6.88   -2.6260302    1.4338305    3.5438027 
        6.89   -2.6252362    1.4310714    3.5573422 
         6.9   -2.6241883    1.4219693    3.6080431 
        6.91   -2.6244477    1.4108558     3.667437 
        6.92    -2.625997    1.4013226    3.7126012 
        6.93   -2.6262517    1.4061118    3.6880529 
        6.94    -2.627831    1.4266076    3.5838227 
        6.95   -2.6274439    1.4498381    3.4660502 
        6.96   -2.6271863    1.4696538    3.3651842 
        6.97    -2.627589    1.4831439    3.3006129 
        6.98     -2.62695    1.4804051    3.3234927 
        6.99   -2.6264159    1.4515933    3.4729537 
           7   -2.6249401    1.4114568    3.6752943 
        7.01   -2.6237537    1.3983282    3.7499537 
        7.02    -2.625629    1.4220217    3.6489686 
        7.03   -2.6256504    1.4412661    3.5691884 
        7.04   -2.6246021    1.4318038    3.6251153 
        7.05   -2.6251193    1.3968865    3.8001606 
        7.06   -2.6245643     1.349095    4.0363944 
        7.07    -2.623621    1.3269696    4.1554535 
        7.08   -2.6252441    1.3513814    4.0599687 
        7.09   -2.6244845    1.3734652    3.9773231 
         7.1   -2.6251281    1.3632058    4.0406211 
        7.11   -2.6247099    1.3254645    4.2302868 
        7.12    -2.623365     1.288308    4.4115367 
        7.13   -2.6232315    1.2861359    4.4192254 
        7.14   -2.6232523     1.322681     4.237748 
        7.15   -2.6240641    1.3764674    3.9719678 
        7.16   -2.6234311    1.4177224    3.7713462 
        7.17   -2.6239453    1.4261813    3.7277791 
        7.18   -2.6235244    1.4106473    3.7986383 
        7.19   -2.6245473    1.4046041    3.8161967 
         7.2   -2.6254738    1.4308919    3.6696072 
        7.21   -2.6258867    1.4775537    3.4135333 
        7.22    -2.627195    1.5202654    3.1658301 
        7.23   -2.6281017    1.5484905    2.9900438 
        7.24   -2.6281055    1.5613084    2.9013687 
        7.25   -2.6282336    1.5508104    2.9358248 
        7.26   -2.6301664    1.5180311    3.0814156 
        7.27   -2.6294992    1.4840922    3.2419483 
        7.28   -2.6295085    1.4628963    3.3406454 
        7.29   -2.6291184     1.449302    3.3961299 
         7.3   -2.6302941    1.4419731    3.4115648 
        7.31     -2.63135    1.4402609    3.3956467 
        7.32   -2.6306877    1.4396393    3.3734894 
        7.33   -2.6304117     1.452748    3.2897035 
        7.34   -2.6318814     1.488221    3.1106368 
        7.35   -2.6291544    1.5151124    2.9893151 
        7.36   -2.6281072    1.5105314    3.0234201 
        7.37   -2.6288815    1.4761138     3.204411 
        7.38    -2.630165    1.4252108    3.4653648 
        7.39   -2.6289654    1.3861117    3.6718232 
         7.4   -2.6298842    1.3849215    3.6910129 
        7.41   -2.6304295    1.4167893    3.5470792 
        7.42    -2.628494    1.4573281    3.3590268 
        7.43   -2.6284978    1.4821147    3.2383138 
        7.44   -2.6270527    1.4840763     3.228708 
        7.45   -2.6271681    1.4696984    3.2972512 
        7.46   -2.6258417    1.4547383    3.3751354 
        7.47   -2.6257238    1.4561425    3.3798819 
        7.48   -2.6248276    1.4641696    3.3554815 
        7.49   -2.6254552     1.468009    3.3443817 
         7.5   -2.6253543    1.4841274    3.2785966 
        7.51   -2.6247157    1.4931708    3.2431265 
        7.52   -2.6256109    1.4812996     3.297938 
        7.53   -2.6249605    1.4625668    3.3883052 
        7.54   -2.6245701    1.4396214    3.4978551 
        7.55   -2.6243937    1.4206357    3.5850557 
        7.56   -2.6238854    1.4438421    3.4811559 
        7.57   -2.6251117    1.4961345    3.2468302 
        7.58   -2.6248563    1.5265222      3.12513 
        7.59    -2.625106    1.5185929    3.1967888 
         7.6   -2.6257458    1.4803522    3.4257999 
        7.61   -2.6253284     1.428328    3.7288315 
        7.62   -2.6257062    1.3897234    3.9668906 
        7.63   -2.6244193    1.3800299    4.0639035 
        7.64   -2.6231219    1.3872061    4.0664206 
        7.65   -2.6235176    1.3997679    4.0257833 
        7.66   -2.6241773    1.4109295     3.980467 
        7.67   -2.6252226    1.4124999    3.9713041 
        7.68   -2.6240381     1.403836    4.0069538 
        7.69   -2.6238931     1.395148    4.0347984 
         7.7   -2.6237558    1.4004162    3.9916103 
        7.71   -2.6252008    1.4250127    3.8517148 
        7.72   -2.6259999    1.4584578    3.6716642 
        7.73   -2.6279619    1.4851492     3.527348 
        7.74   -2.6277047    1.4952093     3.474134 
        7.75   -2.6282228    1.4833473    3.5308283 
        7.76   -2.6276924      1.45159    3.6861585 
        7.77   -2.6272833    1.4109996    3.8799305 
        7.78   -2.6259621    1.3816988    4.0140759 
        7.79   -2.6264911     1.380559     4.002089 
         7.8   -2.6267685    1.4035827    3.8627874 
        7.81   -2.6258614    1.4354798    3.6683337 
        7.82   -2.6259821    1.4693716    3.4513118 
        7.83   -2.6257208    1.5095639     3.202636 
        7.84   -2.6253443    1.5529571    2.9448004 
        7.85   -2.6256148    1.5838663    2.7558321 
        7.86   -2.6277041    1.5911504    2.6906882 
        7.87    -2.627695    1.5759485    2.7538005 
        7.88   -2.6276769    1.5474036    2.9006012 
        7.89   -2.6274285    1.5190359    3.0707431 
         7.9   -2.6265498    1.4798997    3.3101358 
        7.91   -2.6270553    1.4066047    3.7085279 
        7.92   -2.6285474      1.32623    4.1299901 
        7.93   -2.6284306    1.3080193    4.2578436 
        7.94   -2.6283544    1.3449539    4.1109391 
        7.95   -2.6276782    1.3875369    3.9083728 
        7.96   -2.6287281    1.4422143    3.6300386 
        7.97    -2.629282    1.4975858    3.3458904 
        7.98    -2.628361    1.5200148    3.2216674 
        7.99   -2.6283384    1.5097649    3.2612293 
           8   -2.6272804    1.4856423    3.3818509 
        8.01   -2.6276634    1.4627343    3.5039132 
        8.02   -2.6264922    1.4511208    3.5802343 
        8.03   -2.6266386    1.4478873    3.6169483 
        8.04   -2.6270339    1.4387228    3.6802063 
        8.05   -2.6282013     1.419932    3.7865821 
        8.06   -2.6278061    1.4009698    3.8973698 
        8.07   -2.6263705    1.3878684    3.9838842 
        8.08   -2.6253257    1.3810557    4.0409763 
        8.09   -2.6240155     1.379695    4.0711639 
         8.1   -2.6240197     1.385114    4.0630602 
        8.11   -2.6239036    1.3913092    4.0437926 
        8.12   -2.6239026    1.3857903    4.0672661 
        8.13   -2.6275321    1.3709163    4.1133565 
        8.14   -2.6265947    1.3757639    4.0607242 
        8.15   -2.6265009    1.4199819    3.8139798 
        8.16   -2.6277091    1.4696946    3.5315615 
        8.17   -2.6274433    1.4892549    3.3896307 
        8.18   -2.6279403    1.4792422    3.3907934 
        8.19   -2.6288461    1.4584792    3.4528076 
         8.2   -2.6291164    1.4347827    3.5384537 
        8.21   -2.6284658    1.4043678    3.6589906 
        8.22   -2.6289766    1.3735972    3.7750882 
        8.23   -2.6278934    1.3638312    3.7877562 
        8.24   -2.6273892    1.4107887    3.5364271 
        8.25   -2.6271877    1.4947593    3.1205138 
        8.26   -2.6277286    1.5527708    2.8348016 
        8.27   -2.6283653     1.556782    2.8168802 
        8.28   -2.6276783    1.5199457    3.0098008 
        8.29   -2.6263448     1.475701    3.2525689 
         8.3   -2.6266058    1.4530205    3.4007926 
        8.31   -2.6272863    1.4531591    3.4440754 
        8.32   -2.6280952    1.4519802    3.4892633 
        8.33   -2.6283529    1.4280854     3.631297 
        8.34   -2.6287015    1.3902399    3.8234946 
        8.35   -2.6272333    1.3826436    3.8668074 
        8.36   -2.6263654    1.4328187    3.6413063 
        8.37   -2.6247254    1.4977337    3.3568121 
        8.38   -2.6259054    1.5213065    3.2731368 
        8.39   -2.6245622    1.4946684    3.4397304 
         8.4   -2.6250465    1.4531445    3.6781528 
        8.41   -2.6246623    1.4313366    3.8216533 
        8.42   -2.6220682    1.4274338    3.8719129 
        8.43   -2.6212914    1.4265638    3.8910402 
        8.44   -2.6225936     1.419188    3.9262322 
        8.45   -2.6241556    1.4048732    3.9849213 
        8.46    -2.624162    1.3863847    4.0582651 
        8.47   -2.6255892    1.3635062    4.1405144 
        8.48   -2.6266096    1.3490526    4.1754125 
        8.49   -2.6270178    1.3614096    4.0828981 
         8.5   -2.6263913    1.3868477    3.9293877 
        8.51   -2.6260012    1.4007063     3.829779 
        8.52   -2.6257255    1.3989013    3.8077124 
        8.53   -2.6259853     1.391248    3.8190042 
        8.54   -2.6267619    1.3817839    3.8413829 
        8.55   -2.6263716    1.3762484    3.8486394 
        8.56   -2.6261231    1.3740508    3.8393402 
        8.57   -2.6272815    1.3716948     3.826144 
        8.58   -2.6279454     1.384013    3.7500556 
        8.59   -2.6271863    1.4023304    3.6551519 
         8.6   -2.6270503    1.4074794    3.6265769 
        8.61   -2.6269135    1.3994489    3.6652651 
        8.62   -2.6276663    1.3856912    3.7286624 
        8.63   -2.6276519    1.3914857    3.6966251 
        8.64   -2.6268876    1.4285802    3.5102109 
        8.65   -2.6262494    1.4796803     3.247468 
        8.66   -2.6266469    1.5239383    3.0116602 
        8.67   -2.6256013    1.5507064    2.8670314 
        8.68   -2.6258612    1.5578733    2.8256219 
        8.69   -2.6252077     1.545674    2.8890115 
         8.7   -2.6251938    1.5205324    3.0199642 
        8.71   -2.6264929    1.4975915    3.1426373 
        8.72   -2.6263586    1.4878664    3.2084978 
        8.73   -2.6276726     1.496963    3.1923527 
        8.74   -2.6270606    1.5129974    3.1621834 
        8.75   -2.6270584    1.5019597    3.2694178 
        8.76   -2.6267723    1.4617876    3.5208802 
        8.77     -2.62624    1.4148047     3.805205 
        8.78    -2.626102    1.3720703    4.0563545 
        8.79   -2.6255659    1.3456438    4.2100665 
         8.8   -2.6256903    1.3499938    4.1963176 
        8.81   -2.6245321    1.3895145    4.0057572 
        8.82   -2.6245802    1.4427851    3.7473237 
        8.83   -2.6256553    1.4615963    3.6532692 
        8.84   -2.6253595     1.420525    3.8461921 
        8.85   -2.6258257    1.3553515    4.1542868 
        8.86   -2.6256777    1.3234856     4.307252 
        8.87   -2.6274014    1.3455909    4.1997181 
        8.88   -2.6271887    1.3963063    3.9577193 
        8.89   -2.6277357    1.4261948    3.8108476 
         8.9    -2.627044    1.4133178    3.8655192 
        8.91   -2.6259699    1.3927603    3.9594192 
        8.92   -2.6262399    1.3920693    3.9567649 
        8.93   -2.6274095    1.4028631    3.8881318 
        8.94    -2.627811    1.4243862     3.761995 
        8.95   -2.6283581    1.4447867     3.634864 
        8.96   -2.6274406    1.4434365    3.6039495 
        8.97   -2.6279244    1.4281939    3.6297323 
        8.98   -2.6272518    1.4363337    3.5498504 
        8.99   -2.6267665     1.482996    3.2969361 
           9   -2.6267869    1.5369993    3.0159395 
        9.01   -2.6287645    1.5708515    2.8376536 
        9.02   -2.6288834    1.5658851    2.8540766 
        9.03   -2.6301514    1.5326562    3.0068887 
        9.04   -2.6302677    1.5051215    3.1389717 
        9.05    -2.630155    1.4987603    3.1742391 
        9.06    -2.629525    1.4972411    3.1867634 
        9.07    -2.628865    1.4820382    3.2601656 
        9.08   -2.6283214    1.4574865    3.3715148 
        9.09   -2.6286894    1.4468889    3.4077444 
         9.1   -2.6281757    1.4710917    3.2740796 
        9.11   -2.6288576    1.5184546    3.0216906 
        9.12   -2.6270417    1.5579663     2.804089 
        9.13   -2.6272944    1.5725017    2.7010469 
        9.14   -2.6277949    1.5689491    2.6918865 
        9.15   -2.6294887    1.5641214    2.7025773 
        9.16    -2.628325    1.5619345    2.7223884 
        9.17   -2.6282011    1.5537547    2.7821777 
        9.18   -2.6268975    1.5333054    2.9093832 
        9.19   -2.6275352    1.5038237     3.075982 
         9.2   -2.6286898    1.4814193    3.2023334 
        9.21    -2.629214    1.4832801    3.2075739 
        9.22   -2.6287092    1.5076061    3.1013517 
        9.23   -2.6282012    1.5357739    2.9723056 
        9.24   -2.6283276    1.5530701    2.8945015 
        9.25   -2.6293802    1.5579101    2.8820684 
        9.26   -2.6287315     1.544908     2.963791 
        9.27   -2.6279259    1.5103867    3.1466964 
        9.28   -2.6292067    1.4762371    3.3200313 
        9.29   -2.6286971     1.463252     3.389471 
         9.3   -2.6297479    1.4635811    3.3803633 
        9.31   -2.6289665    1.4689497      3.33622 
        9.32    -2.628843    1.4766926    3.2689987 
        9.33   -2.6300151    1.4820075    3.2030749 
        9.34   -2.6302652    1.4896105    3.1251899 
        9.35   -2.6310502    1.5089906    2.9963249 
        9.36   -2.6300192    1.5345625    2.8515714 
        9.37   -2.6295045     1.553118     2.752765 
        9.38   -2.6295047    1.5564228    2.7413506 
        9.39   -2.6293709    1.5438365    2.8220608 
         9.4   -2.6296276    1.5212441    2.9658301 
        9.41   -2.6297713    1.4926436    3.1524742 
        9.42   -2.6302994    1.4509449    3.4073353 
        9.43   -2.6297617    1.3936094    3.7354922 
        9.44   -2.6292142    1.3411897    4.0322883 
        9.45   -2.6280363    1.3240312    4.1543959 
        9.46   -2.6285998    1.3483941    4.0694135 
        9.47   -2.6303401    1.3770493    3.9508644 
        9.48    -2.628504    1.3695518    3.9936935 
        9.49    -2.627023    1.3350315    4.1535893 
         9.5   -2.6276639    1.3147163    4.2417373 
        9.51   -2.6287247    1.3210323    4.2001282 
        9.52   -2.6284717      1.34006    4.0898817 
        9.53   -2.6270205    1.3656511    3.9381905 
        9.54   -2.6270157    1.4090972    3.6948396 
        9.55   -2.6291369    1.4688836    3.3744686 
        9.56   -2.6294212    1.5124026    3.1381173 
        9.57    -2.628623    1.5149595    3.0986738 
        9.58    -2.629232    1.4928507    3.1741097 
        9.59   -2.6287037    1.4881473    3.1710021 
         9.6   -2.6270344    1.5094404     3.044376 
        9.61   -2.6271835    1.5317846    2.9037393 
        9.62   -2.6279601    1.5375539    2.8376101 
        9.63   -2.6291161    1.5350799    2.8144406 
        9.64   -2.6265118     1.541488    2.7651135 
        9.65   -2.6257351    1.5534675    2.6923608 
        9.66    -2.626118    1.5661025    2.6162366 
        9.67   -2.6262515    1.5877494    2.5015219 
        9.68   -2.6262798    1.6139746    2.3707989 
        9.69   -2.6265404     1.621095    2.3336505 
         9.7   -2.6266503     1.611879     2.384153 
        9.71   -2.6266634    1.6019411    2.4576608 
        9.72    -2.626801     1.581948      2.59597 
        9.73   -2.6274471    1.5418689    2.8398657 
        9.74    -2.626126    1.4859895    3.1649363 
        9.75   -2.6263733    1.4313049    3.4777932 
        9.76   -2.6268858    1.3942304    3.6968485 
        9.77   -2.6266216    1.3884803    3.7581489 
        9.78    -2.628211    1.4148955    3.6564814 
        9.79    -2.627447    1.4490277    3.5141527 
         9.8   -2.6282238    1.4694931    3.4276458 
        9.81   -2.6271768    1.4775853    3.4016679 
        9.82   -2.6256202    1.4771039    3.4194285 
        9.83   -2.6262782     1.461568    3.5066956 
        9.84   -2.6260027    1.4299591     3.674948 
        9.85   -2.6279536    1.3955574    3.8617578 
        9.86   -2.6283493    1.3649865    4.0417496 
        9.87   -2.6295181    1.3367932    4.2116825 
        9.88   -2.6290041    1.3153825    4.3488403 
        9.89   -2.6292697    1.2963063    4.4605555 
         9.9   -2.6274168    1.2778184      4.54975 
        9.91     -2.62818    1.2820571    4.5041794 
        9.92     -2.62846    1.3234721    4.2654951 
        9.93   -2.6286155    1.3844342    3.9218316 
        9.94   -2.6292742    1.4387394    3.6055012 
        9.95   -2.6284896    1.4737982     3.391406 
        9.96   -2.6298031    1.4875459    3.2929176 
        9.97   -2.6313708    1.4736424    3.3422436 
        9.98   -2.6308233    1.4353065    3.5226939 
        9.99   -2.6297715    1.3952455    3.7215001 
          10   -2.6309457    1.3667962    3.8646418 
Loop time of 0.836505 on 8 procs for 10000 steps with 125 atoms

Performance: 1032868.980 tau/day, 11954.502 timesteps/s
218.5% CPU use with 1 MPI tasks x 8 OpenMP threads

MPI task timing breakdown:
Section |  min time  |  avg time  |  max time  |%varavg| %total
---------------------------------------------------------------
Pair    | 0.51515    | 0.51515    | 0.51515    |   0.0 | 61.58
Neigh   | 0.00099492 | 0.00099492 | 0.00099492 |   0.0 |  0.12
Comm    | 0.046843   | 0.046843   | 0.046843   |   0.0 |  5.60
Output  | 0.011127   | 0.011127   | 0.011127   |   0.0 |  1.33
Modify  | 0.2564     | 0.2564     | 0.2564     |   0.0 | 30.65
Other   |            | 0.005982   |            |       |  0.72

Nlocal:        125.000 ave         125 max         125 min
Histogram: 1 0 0 0 0 0 0 0 0 0
Nghost:        2212.00 ave        2212 max        2212 min
Histogram: 1 0 0 0 0 0 0 0 0 0
Neighs:        18971.0 ave       18971 max       18971 min
Histogram: 1 0 0 0 0 0 0 0 0 0

Total # of neighbors = 18971
Ave neighs/atom = 151.76800
Neighbor list builds = 24
Dangerous builds = 0
unfix nve
reset_timestep 0

### BRING SYSTEM TO REQUIRED STATE ###
variable tdamp equal ${timestep}*100
variable tdamp equal 0.001*100
variable pdamp equal ${timestep}*1000
variable pdamp equal 0.001*1000
fix npt all npt temp ${T} ${T} ${tdamp} iso ${p} ${p} ${pdamp}
fix npt all npt temp 1.75 ${T} ${tdamp} iso ${p} ${p} ${pdamp}
fix npt all npt temp 1.75 1.75 ${tdamp} iso ${p} ${p} ${pdamp}
fix npt all npt temp 1.75 1.75 0.1 iso ${p} ${p} ${pdamp}
fix npt all npt temp 1.75 1.75 0.1 iso 2 ${p} ${pdamp}
fix npt all npt temp 1.75 1.75 0.1 iso 2 2 ${pdamp}
fix npt all npt temp 1.75 1.75 0.1 iso 2 2 1
run 10000
Last active /omp style is pair_style lj/cut/omp
Per MPI rank memory allocation (min/avg/max) = 10.63 | 10.63 | 10.63 Mbytes
Time TotEng Temp Press 
          10   -2.6309457    1.3667962    3.8646418 
       10.01   -2.6270382    1.3585584    3.9163114 
       10.02   -2.6143685     1.384194    3.8193804 
       10.03   -2.5958293    1.4363265    3.6093895 
       10.04   -2.5681392    1.4788797    3.4636076 
       10.05    -2.535757    1.4812986    3.5148944 
       10.06   -2.4980075    1.4587273    3.6876664 
       10.07    -2.457235    1.4651195    3.7266088 
       10.08   -2.4157523    1.5203191    3.5364488 
       10.09   -2.3747523     1.577382     3.323072 
        10.1   -2.3371458    1.6042558    3.2245212 
       10.11   -2.3064743    1.6056769     3.214389 
       10.12   -2.2821481    1.5932567     3.242008 
       10.13   -2.2650103    1.5703797    3.2890219 
       10.14   -2.2513342    1.5458456     3.321221 
       10.15   -2.2397851    1.5126094     3.363133 
       10.16   -2.2293663     1.494674    3.3076227 
       10.17   -2.2175338    1.5444271    2.9487027 
       10.18    -2.200644    1.6346699    2.4339653 
       10.19    -2.180815     1.689482    2.1002428 
        10.2   -2.1578064    1.6905764    2.0310389 
       10.21   -2.1378786    1.6473824    2.1677897 
       10.22   -2.1201391    1.5695357    2.4495505 
       10.23   -2.1019156    1.4833092    2.7448741 
       10.24    -2.084663     1.456414    2.7623657 
       10.25   -2.0612853    1.5017916    2.4701929 
       10.26   -2.0321469     1.566198    2.1047014 
       10.27   -1.9965398    1.6247068    1.7903946 
       10.28   -1.9597276    1.6659304    1.5791698 
       10.29   -1.9197224    1.6832353    1.5045991 
        10.3    -1.883844    1.6725833    1.5684341 
       10.31   -1.8518712    1.6361186      1.75268 
       10.32    -1.821413    1.5917394    1.9794085 
       10.33   -1.7938482     1.556501    2.1709746 
       10.34   -1.7667278    1.5313351    2.3187876 
       10.35    -1.739486    1.5254015    2.3815477 
       10.36   -1.7109991    1.5522483    2.3059659 
       10.37    -1.679901      1.59782    2.1485649 
       10.38    -1.645608    1.6386704    2.0032631 
       10.39    -1.612301    1.6662705    1.9021792 
        10.4   -1.5783738    1.6800993    1.8539939 
       10.41   -1.5469469    1.6840154    1.8413319 
       10.42   -1.5167975    1.6892418    1.8223538 
       10.43   -1.4867995    1.7103018    1.7433799 
       10.44   -1.4596997    1.7453907    1.6084715 
       10.45   -1.4320326    1.7802877    1.4782857 
       10.46   -1.4086933    1.7942737    1.4262318 
       10.47   -1.3868353     1.774138     1.504209 
       10.48   -1.3649684    1.7512619    1.5994882 
       10.49   -1.3443411     1.744316    1.6434504 
        10.5   -1.3268479    1.7310306     1.712306 
       10.51   -1.3071879    1.7228174    1.7694906 
       10.52   -1.2888084    1.7282672    1.7772999 
       10.53   -1.2676381    1.7279407    1.8090021 
       10.54   -1.2478753    1.7187291    1.8681967 
       10.55   -1.2289175    1.7170077    1.8950718 
       10.56   -1.2071388    1.7297769    1.8694701 
       10.57   -1.1846637    1.7462342    1.8295315 
       10.58   -1.1604038    1.7534785    1.8246755 
       10.59   -1.1396324    1.7516653     1.847469 
        10.6   -1.1170355    1.7556379    1.8516004 
       10.61   -1.0949465    1.7808836    1.7817084 
       10.62   -1.0735162    1.8183437    1.6755322 
       10.63   -1.0532715    1.8420777    1.6286025 
       10.64   -1.0330801     1.840841    1.6797704 
       10.65   -1.0162605    1.8419533    1.7217533 
       10.66   -1.0017284    1.8493981    1.7336982 
       10.67  -0.99351898    1.8567605     1.728456 
       10.68  -0.98560867    1.8755079    1.6744945 
       10.69  -0.98049749      1.89771    1.6005768 
        10.7  -0.97965222    1.8997008    1.5922843 
       10.71  -0.98238143    1.8816076    1.6505066 
       10.72  -0.98877977    1.8780163    1.6523425 
       10.73   -1.0012757    1.8822411    1.6157974 
       10.74     -1.02049    1.8708655    1.6214331 
       10.75   -1.0457864    1.8544589    1.6336262 
       10.76   -1.0764355    1.8451378    1.6122643 
       10.77   -1.1126748    1.8318293    1.6000887 
       10.78   -1.1557584    1.7845456    1.7047819 
       10.79   -1.2045025    1.6950427     1.955374 
        10.8   -1.2520927    1.5990949    2.2256777 
       10.81   -1.2983023    1.5476616    2.3251605 
       10.82   -1.3389959    1.5520815    2.2147912 
       10.83   -1.3761401    1.5729385    2.0371963 
       10.84    -1.409483    1.5760162    1.9239548 
       10.85   -1.4383694    1.5639393    1.8737605 
       10.86   -1.4618763    1.5520124    1.8359074 
       10.87   -1.4811179    1.5449774     1.793014 
       10.88   -1.4935661    1.5400283    1.7599259 
       10.89   -1.4991745    1.5342643    1.7478176 
        10.9   -1.4995712    1.5368387    1.7210798 
       10.91   -1.4940137    1.5605119    1.6344269 
       10.92   -1.4855566     1.598429    1.5097872 
       10.93   -1.4710936    1.6311418    1.4244842 
       10.94   -1.4513269    1.6527044    1.4034481 
       10.95   -1.4249335    1.6734507    1.4150217 
       10.96   -1.3934248    1.6955684    1.4508483 
       10.97   -1.3556844    1.7095101    1.5454142 
       10.98   -1.3122455    1.7245148    1.6637027 
       10.99   -1.2607653    1.7566095    1.7513867 
          11   -1.1999887     1.791266    1.8632118 
       11.01   -1.1315769    1.8197594    2.0300842 
       11.02   -1.0580803    1.8405382    2.2520751 
       11.03  -0.98405835    1.8455754    2.5432461 
       11.04  -0.91261561    1.8321617    2.8928861 
       11.05  -0.84653819    1.8166213    3.2167036 
       11.06  -0.78892099    1.8236202    3.4005626 
       11.07  -0.74133325    1.8688722    3.3758655 
       11.08  -0.70593061    1.9321775    3.2169706 
       11.09  -0.68426634    1.9929452    3.0100422 
        11.1  -0.67356278    2.0400152    2.8142166 
       11.11  -0.67500374    2.0549873    2.7041824 
       11.12  -0.68743254    2.0401875    2.6768458 
       11.13  -0.70648311    2.0182472    2.6556392 
       11.14  -0.73304204    1.9992423    2.6010285 
       11.15  -0.76288197    1.9735438     2.552375 
       11.16  -0.79728313    1.9410668    2.5089964 
       11.17  -0.83246483    1.9172186    2.4225844 
       11.18  -0.87065165    1.9128362     2.256686 
       11.19  -0.90954675    1.9072075    2.0959712 
        11.2  -0.95087883     1.881573    2.0129802 
       11.21  -0.99127934    1.8383955    2.0069063 
       11.22   -1.0304054    1.7866172    2.0444053 
       11.23   -1.0681102    1.7374074    2.0818008 
       11.24   -1.1025239    1.6918046    2.1130494 
       11.25   -1.1316762    1.6602252    2.1012339 
       11.26   -1.1571148    1.6594394    1.9868985 
       11.27   -1.1775214    1.6703187    1.8421887 
       11.28   -1.1955943    1.6772083    1.7221539 
       11.29   -1.2103182    1.6862983    1.6095945 
        11.3   -1.2240722    1.7014188    1.4915744 
       11.31   -1.2364231    1.7055709    1.4308837 
       11.32   -1.2456569    1.6846134    1.4781681 
       11.33   -1.2536913    1.6556004    1.5672228 
       11.34    -1.257805    1.6360594    1.6348193 
       11.35   -1.2580737    1.6193671    1.6995419 
       11.36   -1.2551754    1.6006848    1.7752257 
       11.37    -1.247891    1.5919005     1.821415 
       11.38   -1.2345661    1.6000948    1.8160365 
       11.39   -1.2173612    1.6230793    1.7660709 
        11.4   -1.1948208    1.6601807    1.6802511 
       11.41   -1.1658887    1.7007347     1.601943 
       11.42   -1.1319003    1.7257259    1.5977171 
       11.43    -1.095991    1.7294183    1.6806057 
       11.44   -1.0549056    1.7268649    1.7951399 
       11.45   -1.0128028    1.7375103    1.8613469 
       11.46  -0.96886413    1.7689331    1.8508146 
       11.47  -0.92430476    1.8129172    1.7918787 
       11.48  -0.88010563    1.8593523    1.7221634 
       11.49  -0.83917328    1.8987867     1.673167 
        11.5  -0.80147597     1.924958    1.6657493 
       11.51   -0.7730692    1.9444154    1.6668357 
       11.52  -0.75099509    1.9643194    1.6521546 
       11.53  -0.73743022    1.9848704    1.6175227 
       11.54  -0.73100227    2.0008021    1.5858935 
       11.55   -0.7330684     1.993028    1.6245258 
       11.56  -0.74230983    1.9551366     1.756336 
       11.57   -0.7578956    1.9227697    1.8545016 
       11.58  -0.77628658    1.9318956    1.7943726 
       11.59  -0.80192926    1.9607151    1.6459338 
        11.6  -0.83377576    1.9699089    1.5531368 
       11.61  -0.86958642    1.9508268    1.5564357 
       11.62  -0.90875568    1.9124529    1.6295077 
       11.63   -0.9482132    1.8644665    1.7427633 
       11.64   -0.9843545    1.8176554    1.8618594 
       11.65   -1.0177771    1.7831382    1.9453443 
       11.66   -1.0439403    1.7613203    1.9952131 
       11.67   -1.0626753    1.7459152    2.0320196 
       11.68   -1.0774442    1.7424545    2.0317294 
       11.69   -1.0877241     1.756179    1.9784836 
        11.7   -1.0962956    1.7729689    1.9222106 
       11.71    -1.102424    1.7768389    1.9249059 
       11.72   -1.1080163    1.7633321    2.0020079 
       11.73   -1.1132648    1.7369467    2.1340504 
       11.74   -1.1161994    1.7110749    2.2686521 
       11.75   -1.1169701    1.6986738     2.350914 
       11.76   -1.1169517    1.7057767    2.3512065 
       11.77   -1.1135664    1.7357728    2.2602096 
       11.78   -1.1120473    1.7749802    2.1244497 
       11.79   -1.1108286    1.7971042    2.0448394 
        11.8   -1.1117119    1.8000996    2.0294963 
       11.81   -1.1152661    1.8083706    1.9914233 
       11.82    -1.118093    1.8283485    1.9122396 
       11.83   -1.1244773    1.8427665    1.8508844 
       11.84   -1.1338702     1.834334    1.8740642 
       11.85   -1.1458059    1.7982462    2.0002415 
       11.86   -1.1585845    1.7512169    2.1675542 
       11.87   -1.1726688    1.7183744    2.2785595 
       11.88   -1.1865715    1.7153528    2.2749456 
       11.89   -1.2002221    1.7406608    2.1660406 
        11.9   -1.2149314    1.7528469     2.104492 
       11.91   -1.2310652    1.7303208    2.1707715 
       11.92   -1.2462936    1.6952439    2.2856823 
       11.93    -1.261381    1.6768189     2.336693 
       11.94     -1.27504    1.6715198    2.3317603 
       11.95    -1.289256     1.670851    2.2964436 
       11.96   -1.3006349    1.6853152    2.1993692 
       11.97   -1.3125976    1.7087629    2.0609544 
       11.98   -1.3251768    1.7267691    1.9366272 
       11.99   -1.3382125    1.7380929    1.8340262 
          12   -1.3520996    1.7540319    1.7142626 
       12.01   -1.3688243    1.7773005    1.5682806 
       12.02   -1.3897825    1.7886156    1.4699157 
       12.03   -1.4130171    1.7633751    1.5168914 
       12.04   -1.4390012    1.6962941    1.7294275 
       12.05    -1.465315    1.6057599    2.0384036 
       12.06   -1.4885834    1.5262283    2.3130705 
       12.07   -1.5076297    1.4822177    2.4561044 
       12.08   -1.5223942    1.4748877    2.4588581 
       12.09   -1.5334484    1.4944401     2.359395 
        12.1    -1.538457    1.5175946    2.2507931 
       12.11   -1.5371688    1.5380201    2.1616036 
       12.12   -1.5303051     1.573526    2.0337142 
       12.13   -1.5170326    1.6050397    1.9434122 
       12.14   -1.4975811    1.6155272    1.9575622 
       12.15   -1.4700853    1.6177405    2.0344069 
       12.16   -1.4392642    1.6270237    2.1108394 
       12.17   -1.3998866    1.6460231    2.1821955 
       12.18   -1.3538448    1.6659831    2.2752445 
       12.19   -1.3033667    1.6770103    2.4172921 
        12.2   -1.2478881    1.6797806    2.5969827 
       12.21   -1.1912716    1.6904821    2.7394422 
       12.22   -1.1368056    1.7265143    2.7689609 
       12.23    -1.085035    1.7842236    2.6940662 
       12.24   -1.0386647    1.8491225    2.5656638 
       12.25  -0.99960754    1.8963711     2.476134 
       12.26  -0.96974612    1.9029564    2.5092679 
       12.27  -0.95107348    1.8741051    2.6423118 
       12.28  -0.93826069    1.8358393    2.7831495 
       12.29  -0.93120924    1.8174782    2.8221829 
        12.3  -0.92831311    1.8333382    2.7131363 
       12.31  -0.92886139     1.859324    2.5506088 
       12.32  -0.93439797    1.8673295    2.4403344 
       12.33  -0.94386872    1.8586005    2.3819182 
       12.34  -0.95572637    1.8628447    2.2741507 
       12.35  -0.97243963    1.8721026    2.1450824 
       12.36  -0.98917088    1.8580102    2.1032705 
       12.37   -1.0098507    1.8262798    2.1238081 
       12.38   -1.0346651    1.7904056    2.1561435 
       12.39   -1.0607432    1.7530833    2.1906551 
        12.4   -1.0851033    1.7156163    2.2226891 
       12.41   -1.1102943    1.6877234    2.2122931 
       12.42   -1.1342205    1.6791413    2.1284039 
       12.43   -1.1567242     1.683865    1.9958815 
       12.44   -1.1750574      1.68564    1.8803385 
       12.45    -1.193098    1.6718971    1.8246886 
       12.46    -1.208582    1.6508345    1.8051034 
       12.47   -1.2214277    1.6425868    1.7536299 
       12.48   -1.2307777    1.6381587    1.7031578 
       12.49   -1.2381807    1.6158687    1.7260896 
        12.5   -1.2416183    1.5825547    1.7999272 
       12.51    -1.239941    1.5583556    1.8551188 
       12.52   -1.2309539    1.5473406    1.8791772 
       12.53    -1.215498    1.5488332    1.8743972 
       12.54   -1.1865269    1.5706822    1.8267529 
       12.55   -1.1454667    1.6138184    1.7382238 
       12.56   -1.0910412    1.6642509    1.6649091 
       12.57   -1.0260398    1.7028057    1.6695337 
       12.58  -0.95732385    1.7153557    1.7820181 
       12.59  -0.89147837    1.7103863    1.9483573 
        12.6  -0.83191355    1.7193573    2.0429973 
       12.61  -0.78079503    1.7635507    1.9841999 
       12.62  -0.73710036    1.8307354    1.8150125 
       12.63  -0.70210527    1.8868816    1.6528202 
       12.64  -0.67837192    1.9194744    1.5432614 
       12.65  -0.66128291    1.9385073    1.4644582 
       12.66  -0.65466977    1.9519403    1.3888737 
       12.67  -0.65320285     1.965023    1.3087253 
       12.68  -0.65836378    1.9716464    1.2456677 
       12.69  -0.66908823     1.954773    1.2590622 
        12.7  -0.68751496    1.9181743    1.3345149 
       12.71  -0.70706397    1.8813833    1.4136086 
       12.72  -0.73165889    1.8490497    1.4713532 
       12.73  -0.75788277    1.8288023     1.483932 
       12.74  -0.78697057     1.816296    1.4642949 
       12.75  -0.81582717    1.7846256     1.504777 
       12.76  -0.84404014    1.7276489    1.6247149 
       12.77  -0.87162522    1.6881899    1.6823313 
       12.78  -0.89545167    1.6819502    1.6270048 
       12.79  -0.91578388    1.6815712    1.5448258 
        12.8  -0.93402982    1.7031076    1.3850187 
       12.81  -0.95169012    1.7503467    1.1405575 
       12.82  -0.97014587     1.790819   0.92756624 
       12.83  -0.98909876      1.79509   0.85451574 
       12.84   -1.0093121    1.7608587   0.93365494 
       12.85   -1.0295472    1.7094754    1.0944871 
       12.86   -1.0470645    1.6657754    1.2517372 
       12.87   -1.0608207    1.6368697    1.3751536 
       12.88   -1.0714671    1.6223293     1.459917 
       12.89   -1.0765462    1.6225884    1.5056757 
        12.9   -1.0802521    1.6336757    1.5212138 
       12.91   -1.0815085    1.6494136    1.5306746 
       12.92    -1.079092    1.6677014    1.5454383 
       12.93   -1.0745446    1.6873982    1.5704431 
       12.94   -1.0665219    1.6969815    1.6472553 
       12.95   -1.0579723    1.6844696    1.8098449 
       12.96   -1.0467918    1.6636272    2.0066878 
       12.97   -1.0291399    1.6663319    2.1246391 
       12.98   -1.0066263    1.7015853     2.126143 
       12.99  -0.98304764    1.7509137    2.0739684 
          13    -0.956159    1.7925978    2.0549698 
       13.01  -0.92626861    1.8090171    2.1355146 
       13.02  -0.89360393    1.8075269    2.2888615 
       13.03  -0.85842183    1.8214507    2.3931448 
       13.04  -0.81987973    1.8613331    2.4068854 
       13.05  -0.78309876    1.9001554    2.4150776 
       13.06  -0.74578149     1.927149    2.4584709 
       13.07  -0.71290792     1.947929    2.5099388 
       13.08  -0.68271816    1.9572858    2.5861935 
       13.09  -0.65857965    1.9595073    2.6648544 
        13.1   -0.6414492    1.9810241    2.6515971 
       13.11  -0.63087047    2.0181919    2.5605632 
       13.12  -0.63126325    2.0440651    2.4843476 
       13.13  -0.64393626    2.0442638    2.4775497 
       13.14  -0.66771611    2.0031629    2.5994854 
       13.15  -0.70234138    1.9226162    2.8401807 
       13.16  -0.74317637    1.8413007    3.0574934 
       13.17  -0.78799222    1.8065871    3.0725389 
       13.18  -0.83769281    1.8233019    2.8620796 
       13.19  -0.89175419    1.8540124    2.5702878 
        13.2  -0.94709478    1.8591514    2.3610899 
       13.21   -1.0024904    1.8309846    2.2793573 
       13.22   -1.0541333    1.7973833    2.2396611 
       13.23   -1.1047582    1.7669888    2.2091328 
       13.24   -1.1492642    1.7290594    2.2287702 
       13.25   -1.1871888    1.6932222    2.2577855 
       13.26   -1.2201798    1.6831129     2.204368 
       13.27   -1.2470711    1.6926636     2.093292 
       13.28    -1.269338    1.6860389    2.0576591 
       13.29   -1.2867999    1.6396041    2.1844248 
        13.3    -1.299805    1.5776491    2.3782499 
       13.31    -1.308335    1.5485463    2.4545684 
       13.32   -1.3134738    1.5546263    2.3955383 
       13.33    -1.313464    1.5819357    2.2546257 
       13.34   -1.3091134    1.6256163    2.0557214 
       13.35   -1.3009693    1.6764612    1.8402443 
       13.36   -1.2894243     1.722076    1.6614742 
       13.37   -1.2759495    1.7512335    1.5659079 
       13.38   -1.2634907    1.7516253     1.597243 
       13.39   -1.2479217    1.7241163    1.7542205 
        13.4   -1.2325116     1.695683    1.9280552 
       13.41   -1.2161167    1.6894417    2.0275775 
       13.42    -1.198024    1.7031928    2.0542452 
       13.43    -1.177427    1.7259567    2.0458536 
       13.44   -1.1546826    1.7524539    2.0216791 
       13.45   -1.1296871     1.778793    1.9984232 
       13.46   -1.1049674    1.7917355    2.0222745 
       13.47    -1.081242    1.7822649    2.1239273 
       13.48   -1.0561953    1.7657711    2.2490046 
       13.49   -1.0296902    1.7609004    2.3277447 
        13.5    -1.003009    1.7714248     2.344219 
       13.51  -0.97454276    1.7853721     2.344107 
       13.52  -0.94594189    1.7898596    2.3711915 
       13.53  -0.91704356    1.7969938    2.3825523 
       13.54  -0.88718334    1.8242791    2.3165001 
       13.55   -0.8540446    1.8841088    2.1352737 
       13.56  -0.82102728    1.9682679    1.8718489 
       13.57  -0.78880538    2.0371432    1.6718738 
       13.58   -0.7629935    2.0632282    1.6272157 
       13.59  -0.74595946     2.050657    1.7159055 
        13.6   -0.7365627    2.0259996    1.8392557 
       13.61  -0.73515257    2.0096863    1.9196324 
       13.62  -0.74345718    1.9957796    1.9717239 
       13.63  -0.76334444    1.9599186     2.074222 
       13.64  -0.79423792    1.8840744     2.282499 
       13.65  -0.83407671    1.8080025    2.4516912 
       13.66  -0.88445631    1.7937656    2.3614191 
       13.67  -0.94586126    1.8085877    2.1279849 
       13.68   -1.0158998    1.7943657    1.9685296 
       13.69   -1.0906632      1.73652    1.9528154 
        13.7   -1.1624583    1.6541131    2.0322394 
       13.71   -1.2228218    1.5730043    2.1282021 
       13.72   -1.2739213    1.5146113    2.1600172 
       13.73   -1.3145061    1.4986933    2.0593324 
       13.74   -1.3430812     1.518286    1.8567454 
       13.75   -1.3630292    1.5280671    1.7115457 
       13.76   -1.3762854    1.5149076    1.6723826 
       13.77   -1.3819003    1.5019217    1.6603067 
       13.78   -1.3804737    1.5047456     1.615128 
       13.79   -1.3730435    1.5260911    1.5214257 
        13.8   -1.3596015    1.5696814     1.367466 
       13.81   -1.3409962    1.6218312    1.2048548 
       13.82   -1.3182958    1.6512004    1.1457925 
       13.83   -1.2930517    1.6460938    1.2308234 
       13.84   -1.2650966    1.6275136    1.3853539 
       13.85   -1.2333432    1.6216221    1.5153094 
       13.86    -1.198494    1.6295414    1.6102321 
       13.87   -1.1609985    1.6418778     1.697865 
       13.88   -1.1230982    1.6616123    1.7629058 
       13.89   -1.0840867    1.6944861    1.7834434 
        13.9   -1.0451306    1.7396517    1.7584301 
       13.91    -1.009079    1.7912595    1.7049882 
       13.92  -0.97362487    1.8355244    1.6763641 
       13.93  -0.94325145    1.8542826    1.7322104 
       13.94  -0.91886576    1.8356033    1.9113925 
       13.95  -0.89861071    1.7943435    2.1591724 
       13.96  -0.88019328    1.7675643    2.3438021 
       13.97  -0.86463629    1.7695094    2.4106403 
       13.98  -0.85147037    1.7880799    2.4035653 
       13.99   -0.8397934    1.7881981    2.4471974 
          14   -0.8300575    1.7555538    2.5868684 
       14.01  -0.82225221    1.7495641    2.6111437 
       14.02  -0.81545465    1.8029638    2.4056444 
       14.03  -0.81015498    1.8690449     2.137787 
       14.04  -0.80956522    1.9071363     1.956157 
       14.05  -0.81476426    1.9082056    1.8961613 
       14.06  -0.82390575    1.8936571     1.884911 
       14.07  -0.83759836    1.8856806    1.8425996 
       14.08  -0.85434585    1.8834503    1.7732753 
       14.09  -0.87392457    1.8759558    1.7168752 
        14.1  -0.89854929    1.8641172    1.6704817 
       14.11  -0.92459106    1.8527911    1.6253448 
       14.12  -0.95303462    1.8372089    1.5995139 
       14.13  -0.98423407    1.8092519    1.6216405 
       14.14   -1.0135986    1.7805325     1.655659 
       14.15   -1.0422391    1.7783265    1.6041949 
       14.16   -1.0708293    1.7882221    1.5165228 
       14.17   -1.0998487    1.7813568    1.4958806 
       14.18   -1.1264071    1.7593348    1.5435546 
       14.19   -1.1482712    1.7360124    1.6127429 
        14.2   -1.1679412    1.7246468    1.6516824 
       14.21   -1.1827147    1.7293357    1.6507312 
       14.22   -1.1930733    1.7370155    1.6590563 
[...]
   27270   -1.3968945    1.4899034    1.4577706   0.61214272 
   27280   -1.3911106    1.4706627    1.5155542   0.61081973 
   27290   -1.3793965    1.4556994    1.5685221    0.6095657 
   27300   -1.3607631    1.4626733    1.5530425   0.60837315 
   27310   -1.3351929     1.499806    1.4394619   0.60724577 
   27320   -1.3048051    1.5636806    1.2405466   0.60620345 
   27330   -1.2691148    1.6363667    1.0247996   0.60527984 
   27340   -1.2311282    1.6923779   0.88071195   0.60451141 
   27350    -1.195086    1.7177219   0.85233997   0.60392353 
   27360   -1.1642474    1.7150091   0.92440783   0.60352294 
   27370   -1.1394876    1.6974753    1.0455984   0.60329985 
   27380   -1.1175873    1.6842263    1.1492451   0.60323636 
   27390   -1.1001859     1.691747    1.1736699   0.60331751 
   27400   -1.0839186    1.7164054     1.133605   0.60354051 
   27410   -1.0690088    1.7435507    1.0796451    0.6039131 
   27420   -1.0578649    1.7669499    1.0342486   0.60444615 
   27430   -1.0460755    1.7835453    1.0183888   0.60514922 
   27440    -1.035481     1.790262    1.0447005   0.60602716 
   27450   -1.0265863    1.7921229    1.0986865   0.60707814 
   27460   -1.0200394    1.7981262    1.1506374   0.60829588 
   27470   -1.0128128    1.8068072    1.2094199   0.60967369 
   27480   -1.0074668    1.8040695    1.3186038   0.61120312 
   27490   -1.0021185    1.7842838    1.4974454   0.61286724 
   27500  -0.99705395     1.755039    1.7154266   0.61463755 
   27510  -0.99069712    1.7338118    1.9095222   0.61647874 
   27520   -0.9846034    1.7360132    2.0222797     0.618359 
   27530  -0.97595183    1.7581733    2.0712022   0.62025865 
   27540  -0.96908422    1.7784497    2.1326091    0.6221679 
   27550  -0.96153645     1.767847     2.314122   0.62407405 
   27560  -0.95408522    1.7150307    2.6487224   0.62594481 
   27570  -0.94426156    1.6619966    2.9778298   0.62772407 
   27580  -0.93415935    1.6759627    3.0485193   0.62935773 
   27590  -0.92109847    1.7345679    2.9362212   0.63083005 
   27600  -0.90873508    1.7602599    2.9150457    0.6321537 
   27610  -0.89722113    1.7409792    3.0361607   0.63332977 
   27620  -0.88618496    1.7218093    3.1406296    0.6343383 
   27630  -0.87700354    1.7352582    3.1048778   0.63516149 
   27640  -0.86844815    1.7765832    2.9440589   0.63580331 
   27650  -0.85886629    1.8250575    2.7380854    0.6362882 
   27660  -0.85340114    1.8730564    2.5158521   0.63664957 
   27670  -0.85229608    1.9263653    2.2654013   0.63692452 
   27680  -0.85639708    1.9630941       2.0669   0.63715385 
   27690  -0.86892069    1.9601758    1.9970113    0.6373699 
   27700  -0.89066907    1.9419016    1.9679664   0.63758602 
   27710  -0.92442781    1.9315751     1.894147   0.63780856 
   27720  -0.96715222    1.9085378    1.8549946   0.63804885 
   27730   -1.0194914    1.8399191    1.9686166   0.63831192 
   27740   -1.0736277    1.7514971     2.155694   0.63857973 
   27750   -1.1302756    1.7045766    2.1997806   0.63882397 
   27760   -1.1836363    1.6868834    2.1520148   0.63903605 
   27770   -1.2324576    1.6457246    2.2032316    0.6392209 
   27780   -1.2749895    1.5820449    2.3514802   0.63936971 
   27790   -1.3085622    1.5423506    2.4273898   0.63945951 
   27800   -1.3334128    1.5464911    2.3536653   0.63947797 
   27810   -1.3538738    1.5672086    2.2229071   0.63943559 
   27820   -1.3667207    1.5870514    2.1080249   0.63935316 
   27830   -1.3766633    1.5993774    2.0304795   0.63924975 
   27840   -1.3800429     1.598621    2.0130974   0.63913793 
   27850   -1.3805331    1.5950503    2.0111223   0.63902135 
   27860   -1.3776217    1.5998366    1.9827774   0.63890099 
   27870   -1.3705478    1.6106929     1.936819    0.6387814 
   27880   -1.3588945    1.6241168    1.8886432    0.6386702 
   27890   -1.3446176    1.6383053    1.8448242   0.63857557 
   27900   -1.3261671    1.6535889    1.8078729   0.63850501 
   27910   -1.3056769     1.670552     1.773781    0.6384652 
   27920    -1.280898    1.6849256    1.7605112   0.63846185 
   27930   -1.2552161    1.6983289    1.7582177   0.63849775 
   27940   -1.2297714    1.7197245    1.7350045   0.63857417 
   27950   -1.2008751    1.7478094    1.7024372   0.63869523 
   27960   -1.1728344    1.7694211    1.7039884   0.63886631 
   27970   -1.1451876    1.7745851    1.7775745   0.63908708 
   27980    -1.117746    1.7629892    1.9256516   0.63934546 
   27990   -1.0917782    1.7361102    2.1397641   0.63961676 
   28000   -1.0658048    1.6912623    2.4235276   0.63986448 
   28010   -1.0381967    1.6433108    2.7115355   0.64004077 
   28020   -1.0108446    1.6354402     2.832339   0.64009826 
   28030   -0.9803814     1.693561    2.6899591   0.64001644 
   28040  -0.94845222    1.7970461    2.3606285   0.63981711 
   28050  -0.91816608    1.9037621    2.0060005   0.63955295 
   28060  -0.89331293    1.9756881    1.7731277   0.63928172 
   28070   -0.8756155    1.9901981     1.748742    0.6390418 
   28080  -0.86468508    1.9530929    1.9099987   0.63883798 
   28090  -0.86426989    1.8965152    2.1265131    0.6386451 
   28100  -0.86737133    1.8650123    2.2365359   0.63842858 
   28110     -0.87457    1.8771782    2.1676978   0.63817059 
   28120  -0.88669052    1.9024276    2.0289801   0.63788071 
   28130  -0.90039699    1.9151573    1.9224946   0.63758067 
   28140  -0.91833137    1.9203444     1.835269   0.63728887 
   28150   -0.9382774    1.9188332     1.772044   0.63702018 
   28160  -0.95982834    1.9056115     1.753723   0.63678528 
   28170  -0.98050819    1.8839502     1.773389   0.63658781 
   28180   -1.0020674    1.8483533    1.8452179   0.63642461 
   28190    -1.020124     1.814691    1.9141481   0.63628432 
   28200   -1.0358075    1.8320551    1.8089494   0.63615845 
   28210    -1.050161    1.8477026    1.7155117   0.63606195 
   28220   -1.0645955    1.8172694    1.7911831   0.63600886 
   28230   -1.0794353    1.7809354    1.8964921   0.63598896 
   28240   -1.0930874    1.7614637    1.9517973   0.63598598 
   28250   -1.1049534    1.7191088    2.0923814   0.63598834 
   28260   -1.1143108    1.6616987    2.2878666   0.63597265 
   28270   -1.1207619    1.6224544    2.4167975   0.63590716 
   28280   -1.1241596    1.6175842    2.4206006   0.63576996 
   28290    -1.123927    1.6452325    2.3135258   0.63555963 
   28300   -1.1200144    1.6457202    2.3084261   0.63529012 
   28310   -1.1142172    1.6211206     2.394758   0.63496204 
   28320   -1.1077273    1.6184066    2.4007684   0.63456264 
   28330   -1.0966777    1.6452072    2.3004106   0.63409037 
   28340   -1.0810125    1.6850985    2.1546599   0.63356056 
   28350   -1.0639795     1.722122    2.0226085   0.63299672 
   28360   -1.0433613    1.7412904    1.9636585   0.63242011 
   28370   -1.0222659    1.7468971      1.95826   0.63184096 
   28380   -1.0019835    1.7623918    1.9211095   0.63126149 
   28390  -0.98199594    1.7928751     1.835407   0.63068827 
   28400  -0.96100087    1.8125426    1.7937827   0.63013447 
   28410  -0.94131747    1.8112172    1.8278413   0.62960698 
   28420   -0.9220331    1.8068608    1.8711978   0.62910128 
   28430  -0.90343903    1.8221686    1.8376679   0.62861134 
   28440  -0.88478469    1.8736763    1.6694117    0.6281439 
   28450   -0.8687689    1.9420356      1.43654   0.62772696 
   28460  -0.85867491    1.9867506    1.2834977    0.6273986 
   28470   -0.8525983    1.9968208    1.2550155   0.62718526 
   28480  -0.85637445    1.9885395    1.2857763   0.62709422 
   28490  -0.86889454    1.9756434    1.3247692   0.62712254 
   28500  -0.89040355    1.9566917    1.3721301   0.62726501 
   28510  -0.92030346    1.9273442    1.4406333    0.6275148 
   28520  -0.95895324    1.8953476    1.5018505   0.62786217 
   28530    -1.005316    1.8615859    1.5544553   0.62829802 
   28540   -1.0595258    1.8140398    1.6418426   0.62881395 
   28550   -1.1170719    1.7519195    1.7752363   0.62939608 
   28560   -1.1745005    1.6857754    1.9235714   0.63002298 
   28570   -1.2264324    1.6278991    2.0505301   0.63067051 
   28580   -1.2708162    1.5845358    2.1353349   0.63131757 
   28590   -1.3057469    1.5580604    2.1696578   0.63194969 
   28600   -1.3336571    1.5484663    2.1481205   0.63256094 
   28610   -1.3518325    1.5550618    2.0760562   0.63315452 
   28620   -1.3637696    1.5804318    1.9429568   0.63374274 
   28630   -1.3718216     1.611946    1.7945267   0.63434766 
   28640   -1.3728906    1.6334763    1.6945607   0.63499383 
   28650   -1.3709981    1.6535105    1.6096444   0.63569963 
   28660   -1.3673832    1.6807662     1.507237   0.63648094 
   28670   -1.3617677    1.7076153     1.415448   0.63735598 
   28680   -1.3527735    1.7181586    1.3942548   0.63834102 
   28690   -1.3450967    1.7040647    1.4681175   0.63944105 
   28700   -1.3359373    1.6822276    1.5797714   0.64064595 
   28710   -1.3250679    1.6816963     1.625487   0.64193982 
   28720   -1.3137115    1.7011627    1.6079763   0.64331595 
   28730   -1.2985252    1.7249475    1.5887356   0.64477741 
   28740   -1.2840204    1.7449334    1.5917633   0.64632835 
   28750   -1.2703171    1.7648081    1.6035184   0.64796954 
   28760   -1.2564023    1.7885655    1.6114333   0.64970022 
   28770   -1.2437478    1.8075286    1.6466827   0.65151963 
   28780   -1.2327524    1.8086933    1.7581899   0.65342194 
   28790   -1.2216698    1.7863376    1.9681254   0.65538853 
   28800   -1.2122014    1.7589362    2.2015331   0.65738493 
   28810   -1.2011281    1.7460785    2.3836976     0.659372 
   28820   -1.1904919    1.7320439    2.5624562   0.66131676 
   28830   -1.1784514    1.7230862    2.7164584   0.66318765 
   28840   -1.1652223    1.7387305    2.7741863   0.66495794 
   28850    -1.151384    1.7620664    2.7947052   0.66661474 
   28860   -1.1409521    1.7845173    2.8024979   0.66815226 
   28870   -1.1326669    1.8121486     2.777335   0.66956769 
   28880   -1.1264852    1.8366423    2.7532392   0.67086297 
   28890   -1.1230723    1.8489789    2.7670589   0.67204009 
   28900   -1.1244458    1.8424722    2.8420662   0.67309492 
   28910    -1.128744    1.8205928    2.9653976   0.67401343 
   28920   -1.1375797    1.7883902    3.1086734    0.6747735 
   28930   -1.1501683    1.7499483    3.2456937    0.6753493 
   28940   -1.1682289    1.7271559    3.2811683   0.67571713 
   28950   -1.1890994    1.7483661    3.1103026   0.67587066 
   28960   -1.2188295    1.7930421    2.8075883   0.67583626 
   28970   -1.2604791    1.8055095    2.5837316   0.67566078 
   28980   -1.3141736    1.7756558    2.4806058   0.67538072 
   28990   -1.3834369    1.7372449    2.3707221   0.67501503 
   29000   -1.4618882    1.7084868     2.203232   0.67458263 
   29010   -1.5447597    1.6714337    2.0669618   0.67411024 
   29020   -1.6225604    1.6121437    2.0431952   0.67361962 
   29030   -1.6877795    1.5367743    2.1260496   0.67311487 
   29040   -1.7383333    1.4701729    2.2213127   0.67258319 
   29050   -1.7739613    1.4432515     2.206469   0.67201005 
   29060   -1.7972984    1.4458183    2.1105114   0.67139718 
   29070   -1.8114799    1.4493549    2.0355154   0.67075911 
   29080   -1.8163845      1.44791    2.0065517   0.67010817 
   29090     -1.81477     1.443197    2.0138238   0.66944936 
   29100   -1.8078349    1.4415914    2.0310639   0.66878187 
   29110   -1.7947095    1.4414644    2.0635467   0.66810273 
   29120   -1.7721724    1.4342484    2.1432135   0.66740564 
   29130   -1.7464052    1.4361238    2.1985662   0.66667808 
   29140   -1.7124968    1.4659786    2.1657577   0.66591131 
   29150   -1.6740726    1.5107196    2.0911279   0.66510998 
   29160   -1.6329581    1.5387593    2.0920751    0.6642849 
   29170   -1.5915159    1.5293295    2.2390811   0.66343472 
   29180   -1.5498964    1.4901879    2.4911145   0.66253471 
   29190   -1.5107064    1.4639591    2.6722352   0.66154429 
   29200   -1.4712174    1.4933156    2.6215286   0.66043462 
   29210   -1.4323301    1.5599101    2.4063357   0.65921274 
   29220   -1.3939268    1.6254652    2.1738838   0.65791258 
   29230   -1.3594467    1.6908014    1.9274235   0.65657375 
   29240   -1.3251816    1.7559286    1.6833152   0.65523795 
   29250   -1.2960162    1.7958545    1.5337359   0.65394547 
   29260   -1.2701826    1.8097183    1.4877995   0.65272195 
   29270   -1.2479416    1.8160096    1.4790073   0.65157671 
   29280   -1.2292653    1.8108029    1.5198517   0.65051139 
   29290   -1.2166258    1.7840151    1.6388655   0.64951902 
   29300   -1.2043888    1.7474481    1.7917669    0.6485803 
   29310   -1.1926701    1.7353945    1.8455839   0.64767149 
   29320   -1.1806664    1.7618889    1.7477196   0.64678436 
   29330   -1.1676039    1.7976104    1.6089158   0.64593389 
   29340   -1.1571419    1.8244961    1.4991006   0.64514313 
   29350   -1.1480939    1.8312928    1.4663083   0.64443029 
   29360   -1.1413913    1.8178132    1.5106769   0.64380124 
   29370   -1.1369135    1.8008669    1.5705298   0.64324989 
   29380   -1.1338531    1.7885225    1.6156611   0.64276692 
   29390   -1.1321781    1.7805777    1.6457779   0.64234496 
   29400   -1.1302007    1.7822805    1.6463254   0.64197944 
   29410   -1.1287304    1.7916943    1.6264178   0.64167045 
   29420   -1.1291965    1.7924016    1.6446354   0.64142095 
   29430   -1.1308905    1.7714995    1.7467074    0.6412275 
   29440   -1.1322927    1.7392601    1.8934035   0.64107357 
   29450   -1.1325139    1.7223305    1.9863989   0.64093602 
   29460   -1.1320006    1.7281826    1.9968928   0.64079948 
   29470   -1.1288101    1.7368456    2.0002127     0.640661 
   29480   -1.1266162    1.7302014    2.0586523   0.64051907 
   29490   -1.1249834    1.7097023    2.1668275   0.64036371 
   29500   -1.1222437    1.7008207     2.234048    0.6401778 
   29510   -1.1174592    1.7092555    2.2377483   0.63995003 
   29520   -1.1091386    1.7153646    2.2441885   0.63967824 
   29530   -1.0996266    1.7400979    2.1762739   0.63936234 
   29540    -1.088971    1.7850272    2.0330148   0.63901358 
   29550   -1.0770912    1.8111507    1.9586254    0.6386539 
   29560   -1.0665341     1.806634    1.9975974    0.6382954 
   29570    -1.056486    1.7812495    2.1168166    0.6379319 
   29580   -1.0452816    1.7567825    2.2389447   0.63754417 
   29590    -1.033864    1.7417835    2.3288523   0.63711173 
   29600   -1.0192485    1.7399825    2.3722869    0.6366189 
   29610   -1.0042922    1.7685083    2.3030393   0.63605902 
   29620  -0.98661414    1.8138531    2.1719645   0.63544264 
   29630   -0.9677821    1.8452961    2.0873084   0.63479012 
   29640  -0.95187971    1.8513724    2.0845171   0.63411509 
   29650  -0.93625349    1.8542518    2.0880564     0.633419 
   29660  -0.92178312    1.8740128    2.0268427   0.63270232 
   29670  -0.90954298    1.8954269    1.9555354   0.63197447 
   29680   -0.9001592    1.8980758     1.948084   0.63124635 
   29690  -0.89510776    1.8808035    2.0079126   0.63051928 
   29700  -0.89320211    1.8514942    2.1072379    0.6297836 
   29710  -0.89375527    1.8129447    2.2320954   0.62902247 
   29720  -0.89718745    1.7762328    2.3372827   0.62821507 
   29730  -0.90268145    1.7638623    2.3422781   0.62734451 
   29740    -0.909687    1.7817163      2.22804   0.62640989 
   29750  -0.91610539    1.8157649    2.0503446   0.62542946 
   29760  -0.92580511    1.8511111    1.8633902   0.62443267 
   29770   -0.9380832    1.8683159    1.7428343   0.62345022 
   29780  -0.95395438    1.8432795    1.7742052   0.62250149 
   29790  -0.97629441    1.7725986    1.9621342   0.62158134 
   29800  -0.99985025    1.6921311    2.1808884    0.6206598 
   29810   -1.0233863    1.6470765    2.2686334    0.6197021 
   29820   -1.0462092    1.6391438     2.217414   0.61869324 
   29830   -1.0675184    1.6398992    2.1279278   0.61764026 
   29840   -1.0869074    1.6391292    2.0407358   0.61655775 
   29850   -1.1055577     1.640697    1.9459559   0.61546076 
   29860    -1.121284    1.6412443    1.8607174   0.61436519 
   29870   -1.1338562    1.6374022    1.7977114   0.61328545 
   29880   -1.1436339    1.6387631    1.7236767   0.61223301 
   29890   -1.1497107    1.6546443    1.6089619   0.61122109 
   29900   -1.1536506    1.6760247    1.4851639   0.61026904 
   29910   -1.1561112    1.6877575    1.4071458    0.6093974 
   29920    -1.154565    1.6885451     1.385828   0.60861965 
   29930   -1.1505078    1.6836685    1.4032249   0.60794017 
   29940   -1.1447902    1.6704198    1.4670116   0.60735634 
   29950    -1.134139     1.651137     1.572284   0.60685779 
   29960   -1.1192664    1.6356607    1.6847969   0.60642771 
   29970   -1.1006841    1.6118283    1.8415333   0.60604662 
   29980   -1.0746974    1.5914645     2.002393    0.6056887 
   29990   -1.0430419    1.5974906    2.0834692   0.60532811 
   30000   -1.0035854    1.6164114    2.1271469   0.60495002 
Loop time of 4.98155 on 8 procs for 30000 steps with 125 atoms

Performance: 520319.883 tau/day, 6022.221 timesteps/s
102.3% CPU use with 1 MPI tasks x 8 OpenMP threads

MPI task timing breakdown:
Section |  min time  |  avg time  |  max time  |%varavg| %total
---------------------------------------------------------------
Pair    | 1.8049     | 1.8049     | 1.8049     |   0.0 | 36.23
Neigh   | 0.0069866  | 0.0069866  | 0.0069866  |   0.0 |  0.14
Comm    | 0.13096    | 0.13096    | 0.13096    |   0.0 |  2.63
Output  | 0.055516   | 0.055516   | 0.055516   |   0.0 |  1.11
Modify  | 2.9681     | 2.9681     | 2.9681     |   0.0 | 59.58
Other   |            | 0.01502    |            |       |  0.30

Nlocal:        125.000 ave         125 max         125 min
Histogram: 1 0 0 0 0 0 0 0 0 0
Nghost:        1886.00 ave        1886 max        1886 min
Histogram: 1 0 0 0 0 0 0 0 0 0
Neighs:        14562.0 ave       14562 max       14562 min
Histogram: 1 0 0 0 0 0 0 0 0 0

Total # of neighbors = 14562
Ave neighs/atom = 116.49600
Neighbor list builds = 115
Dangerous builds = 0

variable avedens equal f_aves[1]
variable avetemp equal f_aves[2]
variable avepress equal f_aves[3]
variable errdens equal sqrt(f_aves[4]-f_aves[1]*f_aves[1])
variable errtemp equal sqrt(f_aves[5]-f_aves[2]*f_aves[2])
variable errpress equal sqrt(f_aves[6]-f_aves[3]*f_aves[3])

print "Averages"
Averages
print "--------"
--------
print "Density: ${avedens}"
Density: 0.635232926355556
print "Stderr: ${errdens}"
Stderr: 0.0243773703576773
print "Temperature: ${avetemp}"
Temperature: 1.74139775820478
print "Stderr: ${errtemp}"
Stderr: 0.124904838062104
print "Pressure: ${avepress}"
Pressure: 2.00048929553326
print "Stderr: ${errpress}"
Stderr: 0.47627648963149
clear # Clear any previous runs
  using 8 OpenMP thread(s) per MPI task

package omp 8 # For parallelisation.
using multi-threaded neighbor list subroutines


### DEFINE SIMULATION BOX GEOMETRY ###
lattice sc 0.8
Lattice spacing in x,y,z = 1.0772173 1.0772173 1.0772173
region box block 0 5 0 5 0 5
create_box 1 box
Created orthogonal box = (0.0000000 0.0000000 0.0000000) to (5.3860867 5.3860867 5.3860867)
  1 by 1 by 1 MPI processor grid
create_atoms 1 box
Created 125 atoms
  create_atoms CPU = 0.000 seconds

### DEFINE PHYSICAL PROPERTIES OF ATOMS ###
mass 1 1.0
pair_style lj/cut/omp 2.5
pair_coeff 1 1 1.0 1.0
neighbor 2.0 bin

### SPECIFY THE REQUIRED THERMODYNAMIC STATE ###
variable T equal 1.75
variable p equal 3
variable timestep equal 0.001

log ${T}_${p}_NpT.log # specify the log file name. Can overwrite if desired
log 1.75_${p}_NpT.log 
log 1.75_3_NpT.log 
