
### SPECIFY THE NUMBER OF PRODUCTION STEPS ###
variable Nprod equal 30000

### ASSIGN ATOMIC VELOCITIES ###
velocity all create ${T} 12345 dist gaussian rot yes mom yes
velocity all create 1.75 12345 dist gaussian rot yes mom yes

### SPECIFY ENSEMBLE ###
timestep ${timestep}
timestep 0.001
fix nve all nve

### THERMODYNAMIC OUTPUT CONTROL ###
thermo_style custom time etotal temp press
thermo 10

### RECORD TRAJECTORY ###
dump traj all custom 1000 traj.dump id x y z

### SPECIFY TIMESTEP ###

### RUN SIMULATION TO MELT CRYSTAL ###
run 10000
Last active /omp style is pair_style lj/cut/omp
Neighbor list info ...
  update every 1 steps, delay 10 steps, check yes
  max neighbors/atom: 2000, page size: 100000
  master list distance cutoff = 4.5
  ghost atom cutoff = 4.5
  binsize = 2.25, bins = 3 3 3
  1 neighbor lists, perpetual/occasional/extra = 1 0 0
  (1) pair lj/cut/omp, perpetual
      attributes: half, newton on, omp
      pair build: half/bin/atomonly/newton/omp
      stencil: half/bin/3d/newton
      bin: standard
Per MPI rank memory allocation (min/avg/max) = 10.63 | 10.63 | 10.63 Mbytes
Time TotEng Temp Press 
           0   -2.6607711         1.75    1.0935632 
        0.01   -2.6607794    1.7092518    1.3202905 
        0.02    -2.659612    1.5837927    2.0088122 
        0.03   -2.6518859    1.3765908    3.1288056 
        0.04   -2.6420134    1.1263068    4.4584162 
        0.05     -2.63906   0.92654174    5.5206231 
        0.06   -2.6389502   0.85853279     5.929199 
        0.07   -2.6366745   0.90523862     5.761016 
        0.08   -2.6361986   0.99449496    5.3480743 
        0.09   -2.6339839    1.0738529    4.9567536 
         0.1   -2.6331857      1.13032    4.6613308 
        0.11   -2.6335674    1.1731897    4.4308344 
        0.12   -2.6326462     1.213059    4.2226455 
        0.13   -2.6321214    1.2574498    3.9966669 
        0.14   -2.6326463     1.309461    3.7333987 
        0.15   -2.6313422    1.3674767    3.4409685 
        0.16   -2.6289936    1.4288825    3.1276223 
        0.17   -2.6288603    1.4928489    2.7917088 
        0.18   -2.6295227    1.5579674    2.4444844 
        0.19   -2.6294058    1.6166563    2.1279545 
         0.2    -2.629418    1.6568153    1.9022538 
        0.21   -2.6285039    1.6702422     1.812758 
        0.22   -2.6274514    1.6579195    1.8579115 
        0.23   -2.6267947     1.628542    1.9988084 
        0.24   -2.6271842    1.5900086    2.1963592 
        0.25   -2.6279617    1.5492188    2.4160819 
        0.26   -2.6284837    1.5141872     2.617789 
        0.27   -2.6286225    1.4874398    2.7844443 
        0.28   -2.6274454    1.4651904     2.928117 
        0.29    -2.628606    1.4505045    3.0247463 
         0.3   -2.6282098    1.4553259    3.0259668 
        0.31    -2.629275    1.4810505    2.9241468 
        0.32   -2.6294311    1.5069316    2.8228282 
        0.33   -2.6300763    1.5085109    2.8350684 
        0.34   -2.6303027    1.4925086    2.9355691 
        0.35   -2.6322725    1.4843164    3.0090808 
        0.36    -2.631504    1.4769892    3.0927031 
        0.37   -2.6318903    1.4566899    3.2410052 
        0.38   -2.6316136    1.4302911      3.42309 
        0.39   -2.6310845    1.4133571    3.5618306 
         0.4   -2.6300402    1.4136104    3.6157444 
        0.41   -2.6304374    1.4293004    3.5858888 
        0.42   -2.6295347    1.4539409    3.5064999 
        0.43   -2.6279745    1.4746006    3.4365936 
        0.44   -2.6297894    1.4850136    3.3990995 
        0.45   -2.6318792     1.492274    3.3695257 
        0.46   -2.6335883    1.4947874    3.3574752 
        0.47   -2.6339728    1.4835248    3.4041226 
        0.48   -2.6329074     1.469152    3.4610846 
        0.49   -2.6323962      1.47002    3.4434674 
         0.5   -2.6322718    1.4799461    3.3806217 
        0.51   -2.6325452    1.4895814    3.3217149 
        0.52   -2.6315203    1.4823896    3.3512372 
        0.53   -2.6305973    1.4429278    3.5388604 
        0.54   -2.6303175    1.3832384    3.8265088 
        0.55   -2.6306945    1.3297049    4.0864112 
        0.56   -2.6308167    1.3036596    4.2135557 
        0.57   -2.6322734    1.3133809    4.1631728 
        0.58    -2.631358    1.3414287    4.0194201 
        0.59   -2.6309653    1.3818835    3.8129747 
         0.6    -2.632161    1.4265576    3.5882781 
        0.61   -2.6317712    1.4534538    3.4527788 
        0.62   -2.6314946    1.4593494     3.417915 
        0.63   -2.6325401    1.4596117    3.4094018 
        0.64   -2.6326815    1.4574801    3.4102129 
        0.65    -2.632655    1.4514713    3.4202935 
        0.66   -2.6308328    1.4616468    3.3543059 
        0.67   -2.6299495    1.4804176    3.2468008 
        0.68   -2.6306047    1.4795621     3.227867 
        0.69   -2.6317559    1.4570999    3.3088709 
         0.7   -2.6308202    1.4368673    3.3832756 
        0.71   -2.6300412    1.4403649    3.3488313 
        0.72   -2.6296805    1.4609515    3.2375748 
        0.73   -2.6295623    1.4712494    3.1784236 
        0.74   -2.6286368    1.4579483    3.2387999 
        0.75   -2.6286248    1.4289441    3.3813112 
        0.76   -2.6278302    1.3974013    3.5428254 
        0.77   -2.6293769    1.3819058    3.6262489 
        0.78   -2.6305731    1.4020166    3.5465489 
        0.79   -2.6308628    1.4396231    3.3892042 
         0.8   -2.6303412     1.463559    3.3011092 
        0.81   -2.6296817    1.4668761    3.3194443 
        0.82   -2.6296887    1.4537461    3.4259012 
        0.83   -2.6282574    1.4189449    3.6415622 
        0.84    -2.628229    1.3647932    3.9394177 
        0.85    -2.626231    1.3262995    4.1539151 
        0.86   -2.6270253    1.3396758    4.1059983 
        0.87   -2.6258946    1.3939553    3.8554597 
        0.88   -2.6253944    1.4448156    3.6118807 
        0.89   -2.6264368    1.4620822    3.5260115 
         0.9   -2.6265478    1.4454406    3.6109707 
        0.91   -2.6270543    1.4113741    3.7861481 
        0.92    -2.627046     1.379708    3.9523267 
        0.93   -2.6278355     1.362417    4.0419031 
        0.94   -2.6290102    1.3584758    4.0530541 
        0.95     -2.62849    1.3684699    3.9867726 
        0.96   -2.6287657    1.3897876    3.8569982 
        0.97   -2.6279912    1.4063449    3.7460658 
        0.98   -2.6278459     1.406977    3.7064156 
        0.99   -2.6282156    1.4049234    3.6808089 
           1   -2.6284797    1.4175859    3.5913289 
        1.01   -2.6287496    1.4411737    3.4521224 
        1.02   -2.6273111    1.4663221    3.3076804 
        1.03   -2.6279685    1.4918891    3.1603605 
        1.04   -2.6264155    1.5114017    3.0498924 
        1.05   -2.6257582    1.5153109    3.0161974 
        1.06   -2.6262603     1.508789    3.0348206 
        1.07   -2.6265105    1.5113036    3.0178826 
        1.08    -2.626138    1.5287251    2.9395982 
        1.09   -2.6261543    1.5432924    2.8817524 
         1.1   -2.6253816    1.5390124    2.9239053 
        1.11   -2.6252477    1.5080832    3.1003697 
        1.12    -2.624704    1.4586364    3.3718128 
        1.13   -2.6267769     1.418703    3.6006668 
        1.14   -2.6258798    1.4065494    3.7061046 
        1.15     -2.62589    1.4105546    3.7264991 
        1.16   -2.6247156     1.418115    3.7181255 
        1.17   -2.6240604    1.4265784    3.6899164 
        1.18   -2.6247056    1.4363297    3.6403111 
        1.19    -2.625088    1.4525129    3.5514558 
         1.2    -2.624836     1.482071    3.3978272 
        1.21   -2.6249853    1.5127396    3.2387377 
        1.22   -2.6260248     1.526259    3.1617479 
        1.23   -2.6249658    1.5244688    3.1692585 
        1.24    -2.625618    1.5194833    3.2035635 
        1.25   -2.6252429    1.5133965    3.2606666 
        1.26   -2.6265683    1.4940146    3.3902422 
        1.27   -2.6266991    1.4495186     3.644947 
        1.28   -2.6281045    1.3878893     3.974136 
        1.29   -2.6293802    1.3471979    4.1963631 
         1.3     -2.62863    1.3571501    4.1728663 
        1.31   -2.6271103    1.3887133    4.0293878 
        1.32   -2.6271187    1.3969153    3.9683314 
        1.33   -2.6260121    1.3770369    4.0170653 
        1.34   -2.6258469    1.4067541    3.8323494 
        1.35   -2.6253228    1.4983125    3.3726885 
        1.36    -2.624619    1.5364574     3.157878 
        1.37   -2.6247126    1.5317388    3.1580653 
        1.38   -2.6235357    1.5119661    3.2550944 
        1.39   -2.6236527    1.4821818    3.4144233 
         1.4   -2.6232472    1.4538694    3.5789286 
        1.41   -2.6235221    1.4402928     3.680579 
        1.42   -2.6240612    1.4316569    3.7588286 
        1.43   -2.6236671    1.4130821    3.8801355 
        1.44   -2.6236579    1.3860759    4.0355281 
        1.45   -2.6239069    1.3603334    4.1802136 
        1.46   -2.6242893    1.3493208    4.2516175 
        1.47   -2.6240452    1.3603404    4.2180029 
        1.48   -2.6241973    1.3764007    4.1549553 
        1.49   -2.6245938    1.3769594    4.1573007 
         1.5   -2.6245809    1.3573975    4.2469354 
        1.51   -2.6263806    1.3356566    4.3352476 
        1.52    -2.626761    1.3412211    4.2893039 
        1.53   -2.6271561     1.388691    4.0405211 
        1.54   -2.6265541    1.4664532    3.6524779 
        1.55   -2.6261766    1.5259122    3.3531868 
        1.56    -2.624337    1.5439354    3.2613784 
        1.57   -2.6255042    1.5264234    3.3483029 
        1.58   -2.6253603    1.4840844    3.5677505 
        1.59   -2.6258736    1.4333249     3.832934 
         1.6   -2.6266669    1.3872766    4.0733944 
        1.61   -2.6237827    1.3460523    4.2810869 
        1.62   -2.6241396    1.3267756    4.3576956 
        1.63   -2.6246691    1.3582626    4.1770514 
        1.64   -2.6247215    1.4301964    3.7954582 
        1.65   -2.6246164      1.49245    3.4547867 
        1.66   -2.6238133    1.5144659    3.3107238 
        1.67   -2.6230138    1.5071701    3.3214749 
        1.68   -2.6240545    1.4882624    3.4009918 
        1.69   -2.6236638    1.4630206    3.5204818 
         1.7   -2.6244303    1.4329527    3.6570169 
        1.71   -2.6253234    1.4127534     3.737512 
        1.72    -2.626232    1.4212504    3.6747283 
        1.73   -2.6262473    1.4611981    3.4624846 
        1.74   -2.6266654    1.5129824    3.1976944 
        1.75   -2.6266755    1.5476235    3.0235045 
        1.76   -2.6277045    1.5536905     2.996579 
        1.77   -2.6287374    1.5421762     3.069362 
        1.78   -2.6279543    1.5256473    3.1819143 
        1.79   -2.6292661    1.5061573     3.310529 
         1.8   -2.6275786    1.4821997    3.4635567 
        1.81   -2.6261378    1.4510366    3.6411804 
        1.82   -2.6267617    1.4240006    3.7825299 
        1.83   -2.6266451    1.4263279    3.7768234 
        1.84   -2.6265409    1.4464512    3.6757464 
        1.85   -2.6269237    1.4569891    3.6061723 
        1.86   -2.6271759     1.458386     3.574853 
        1.87   -2.6261367    1.4571402    3.5589437 
        1.88   -2.6237735    1.4549962    3.5513272 
        1.89   -2.6231262    1.4620185    3.5036072 
         1.9   -2.6231384    1.4720604    3.4462611 
        1.91   -2.6234041    1.4715696    3.4415339 
        1.92   -2.6239196    1.4561746    3.5071012 
        1.93   -2.6241591    1.4377157    3.5858838 
        1.94    -2.622981    1.4378635    3.5790784 
        1.95   -2.6219376    1.4628929    3.4568301 
        1.96   -2.6228831    1.5049325    3.2591038 
        1.97   -2.6223706    1.5335942    3.1345179 
        1.98   -2.6222237    1.5331744     3.154223 
        1.99   -2.6240349    1.5150367    3.2622996 
           2   -2.6229781    1.4959429    3.3831742 
        2.01   -2.6248142    1.4889351    3.4430543 
        2.02   -2.6252372    1.4868974     3.479968 
        2.03   -2.6248603     1.464409    3.6084733 
        2.04   -2.6270526    1.4143672    3.8540208 
        2.05   -2.6279247    1.3699539    4.0685653 
        2.06   -2.6272832    1.3751805    4.0517737 
        2.07   -2.6279898    1.4191622    3.8496892 
        2.08   -2.6279999    1.4537898     3.688203 
        2.09   -2.6281241    1.4633881     3.644528 
         2.1   -2.6275911    1.4551349    3.6883434 
        2.11   -2.6271878    1.4438582    3.7481059 
        2.12   -2.6270653    1.4424052    3.7658648 
        2.13    -2.627477    1.4383746    3.7978735 
        2.14   -2.6273001    1.4144892    3.9179945 
        2.15   -2.6264775    1.4062575    3.9603583 
        2.16    -2.627278    1.4463793    3.7693948 
        2.17   -2.6277096    1.5157289    3.4377541 
        2.18    -2.626955    1.5719023    3.1722607 
        2.19   -2.6257881    1.5835856    3.1289122 
         2.2   -2.6268298    1.5394757    3.3603841 
        2.21   -2.6266639    1.4486234    3.8206647 
        2.22   -2.6275147    1.3544573    4.2892604 
        2.23    -2.628036    1.3184495    4.4732303 
        2.24   -2.6278153     1.346849    4.3347945 
        2.25   -2.6280945    1.4007877    4.0491366 
        2.26   -2.6282237    1.4579588    3.7316452 
        2.27   -2.6273165    1.5128371    3.4249719 
        2.28   -2.6282421    1.5524967    3.1953577 
        2.29   -2.6266768    1.5633221    3.1194774 
         2.3   -2.6267978     1.541955     3.207971 
        2.31   -2.6272966     1.498746     3.410785 
        2.32   -2.6276728    1.4561382    3.6176901 
        2.33   -2.6251929    1.4317108    3.7436425 
        2.34   -2.6257167    1.4265948      3.76726 
        2.35   -2.6251982    1.4373243    3.7091204 
        2.36   -2.6250817    1.4583827    3.5950359 
        2.37    -2.625872    1.4764112    3.4878976 
        2.38   -2.6252074    1.4833539     3.430063 
        2.39   -2.6261147    1.4863631    3.3860672 
         2.4   -2.6252072    1.4906127    3.3386884 
        2.41   -2.6266421    1.4894731     3.310773 
        2.42   -2.6272841    1.4829862    3.3080609 
        2.43   -2.6280641    1.4790135    3.2957691 
        2.44   -2.6284609    1.4797698    3.2680476 
        2.45   -2.6284722    1.4803027    3.2525382 
        2.46   -2.6283495      1.47228    3.2904675 
        2.47   -2.6286087    1.4524561    3.3941524 
        2.48   -2.6282059    1.4274087    3.5279442 
        2.49   -2.6284594    1.4115739    3.6158481 
         2.5   -2.6289838    1.4169316    3.6006331 
        2.51   -2.6303005    1.4425613    3.4881933 
        2.52   -2.6308445    1.4746803    3.3503171 
        2.53   -2.6307228    1.4909081    3.2940935 
        2.54   -2.6300595    1.4820229    3.3640001 
        2.55   -2.6291394    1.4576422    3.5142555 
        2.56   -2.6290029    1.4252866    3.7014151 
        2.57   -2.6282058    1.3925289    3.8844236 
        2.58   -2.6275384    1.3736994    3.9906589 
        2.59   -2.6279301    1.3822241    3.9571982 
         2.6   -2.6278217    1.4147881    3.8071551 
        2.61   -2.6281048     1.447659    3.6554963 
        2.62   -2.6261523     1.457327    3.6197817 
        2.63   -2.6266606    1.4380562     3.718276 
        2.64    -2.626755    1.4085911    3.8636016 
        2.65   -2.6273986    1.4066107    3.8777278 
        2.66   -2.6273061    1.4413627    3.7189572 
        2.67   -2.6268025    1.4788194    3.5408995 
        2.68   -2.6253576    1.4987667    3.4413216 
        2.69   -2.6254876    1.5056299    3.4020499 
         2.7   -2.6262801    1.5002293    3.4217687 
        2.71   -2.6258726    1.4783704    3.5189908 
        2.72   -2.6258535    1.4551697    3.6198549 
        2.73   -2.6280796      1.44856    3.6391796 
        2.74   -2.6275689    1.4518801     3.613981 
        2.75   -2.6273004    1.4558303    3.5823291 
        2.76   -2.6284746    1.4685749    3.5090774 
        2.77   -2.6287602    1.4895764     3.404736 
        2.78    -2.626673    1.4963094    3.3758087 
        2.79   -2.6270413    1.4862893    3.4291242 
         2.8   -2.6267814    1.4750152    3.5009015 
        2.81     -2.62653     1.461865    3.5884677 
        2.82   -2.6274348    1.4410423    3.7087043 
        2.83   -2.6280648    1.4251242    3.8005424 
        2.84   -2.6279368    1.4342075    3.7710538 
        2.85   -2.6270471    1.4663095    3.6306986 
        2.86    -2.627723    1.4977815     3.487724 
        2.87   -2.6281115    1.5066616    3.4484133 
        2.88    -2.628484    1.4942935    3.5065497 
        2.89   -2.6282108    1.4790417    3.5765812 
         2.9   -2.6286125    1.4727188    3.5990631 
        2.91   -2.6288817    1.4684433    3.6034724 
        2.92   -2.6292602     1.460784    3.6142369 
        2.93   -2.6311018     1.456622    3.6034011 
        2.94   -2.6321592    1.4437455     3.634136 
        2.95   -2.6318665    1.4122495    3.7551351 
        2.96   -2.6318454    1.3875252    3.8526016 
        2.97    -2.632118    1.3891819    3.8381196 
        2.98    -2.631364    1.4041025    3.7715002 
        2.99   -2.6305781    1.4058604    3.7679338 
           3   -2.6301681    1.3968465    3.8140159 
        3.01   -2.6313361    1.3957508    3.8195443 
        3.02   -2.6312066    1.4118538    3.7441972 
        3.03   -2.6314865    1.4430403    3.5983954 
        3.04   -2.6305889    1.4713675     3.473449 
        3.05   -2.6302021    1.4776494    3.4621729 
        3.06   -2.6291526    1.4546716    3.6032556 
        3.07   -2.6278266    1.4089844    3.8617963 
        3.08   -2.6279271    1.3635352    4.1193832 
        3.09   -2.6264871    1.3460086    4.2420669 
         3.1   -2.6254503    1.3629442    4.1875854 
        3.11   -2.6254674    1.4047844    3.9989374 
        3.12    -2.625233    1.4527251    3.7735491 
        3.13   -2.6264228    1.4816605    3.6347199 
        3.14   -2.6272014    1.4781564    3.6538389 
        3.15   -2.6273153    1.4494527    3.7973699 
        3.16   -2.6267714    1.4166063    3.9610839 
        3.17   -2.6258552    1.4011812     4.037289 
        3.18   -2.6250842    1.4058559    4.0085253 
        3.19   -2.6254868    1.4171356    3.9366759 
         3.2   -2.6260019    1.4252595    3.8738178 
        3.21   -2.6265191    1.4374044    3.7955262 
        3.22   -2.6281083     1.455601    3.6958435 
        3.23   -2.6273255    1.4610207     3.664255 
        3.24   -2.6264073    1.4507261    3.7095662 
        3.25   -2.6263986    1.4315676    3.7957323 
        3.26   -2.6278107    1.4170597    3.8562643 
        3.27   -2.6283487    1.4253254    3.8116514 
        3.28   -2.6290286    1.4418064    3.7262437 
        3.29   -2.6289079    1.4386316    3.7311337 
         3.3   -2.6274552    1.4069794    3.8721916 
        3.31   -2.6271742    1.3624272    4.0778332 
        3.32   -2.6266436    1.3274431    4.2483562 
        3.33   -2.6250895     1.311093    4.3417202 
        3.34   -2.6241905    1.3043427    4.3919046 
        3.35   -2.6252152     1.297941    4.4328232 
        3.36   -2.6257285    1.3067521    4.3978044 
        3.37   -2.6248406    1.3371843    4.2580344 
        3.38   -2.6247205    1.3673653    4.1081923 
        3.39   -2.6260133    1.3837601    4.0097563 
         3.4   -2.6256032    1.3967296    3.9211308 
        3.41   -2.6233651    1.4277722    3.7455936 
        3.42   -2.6248388    1.4918475     3.413049 
        3.43   -2.6256719    1.5528654    3.1012622 
        3.44   -2.6255291    1.5629507    3.0343543 
        3.45   -2.6265409     1.526376    3.1930484 
        3.46   -2.6261254    1.4789354     3.414201 
        3.47   -2.6253418     1.452102    3.5460735 
        3.48   -2.6248576     1.449107    3.5710499 
        3.49   -2.6246201    1.4364456    3.6429731 
         3.5   -2.6241132    1.3883106    3.8825608 
        3.51   -2.6250869    1.3051615    4.2773219 
        3.52   -2.6252962    1.2707921     4.448701 
        3.53   -2.6256589    1.3222837    4.2262004 
        3.54   -2.6251278    1.3677924    4.0185717 
        3.55   -2.6251141    1.3891217    3.9157663 
        3.56   -2.6238023    1.3929204    3.8940667 
        3.57   -2.6242001    1.3839355    3.9251249 
        3.58   -2.6240534    1.3627063    4.0041347 
        3.59   -2.6242892    1.3502629    4.0299469 
         3.6   -2.6246966     1.371795    3.8889685 
        3.61    -2.624714    1.4148417    3.6405226 
        3.62   -2.6256255    1.4573828    3.3899211 
        3.63   -2.6252277    1.4933576    3.1793949 
        3.64   -2.6245875    1.5186374    3.0350559 
        3.65   -2.6242111    1.5173429    3.0313201 
        3.66   -2.6257694    1.4773312    3.2158352 
        3.67   -2.6254481    1.4180077     3.494101 
        3.68   -2.6254305    1.3993831    3.5814041 
        3.69   -2.6239126    1.4407932    3.3897796 
         3.7   -2.6243417    1.4956017     3.128859 
        3.71   -2.6240846     1.521993    3.0030216 
        3.72   -2.6249798    1.5090962    3.0647518 
        3.73   -2.6256032    1.4731498    3.2398307 
        3.74   -2.6275451    1.4449747    3.3803666 
        3.75   -2.6263845    1.4411295    3.4151947 
        3.76   -2.6282275     1.450705    3.3841351 
        3.77   -2.6296652    1.4565464    3.3725156 
        3.78   -2.6307086    1.4547544    3.4005673 
        3.79   -2.6294202    1.4448523    3.4729403 
         3.8   -2.6286461     1.417009    3.6235027 
        3.81   -2.6295179    1.3738681    3.8278453 
        3.82   -2.6300101    1.3605007    3.8798505 
        3.83   -2.6295295    1.4049179    3.6553148 
        3.84   -2.6291702    1.4687293    3.3309432 
        3.85   -2.6279902    1.5137937    3.0928115 
        3.86   -2.6274614    1.5355011    2.9722081 
        3.87   -2.6287735    1.5358106    2.9640557 
        3.88   -2.6298149    1.5092659    3.0940283 
        3.89   -2.6303108     1.461162    3.3322845 
         3.9   -2.6302846    1.4174235    3.5553116 
        3.91   -2.6293807    1.4010675    3.6542877 
        3.92   -2.6303145    1.4092007    3.6345193 
        3.93   -2.6303206    1.4267917    3.5682932 
        3.94   -2.6302018    1.4455068    3.4946739 
        3.95   -2.6298154    1.4546007    3.4632926 
        3.96   -2.6307127    1.4505852    3.4853025 
        3.97   -2.6304443    1.4485109    3.4944163 
        3.98   -2.6296601    1.4578242    3.4449781 
        3.99    -2.629141    1.4799961    3.3314554 
           4   -2.6285105    1.5091553    3.1868576 
        4.01   -2.6266979    1.5228416    3.1182494 
        4.02    -2.625641    1.5059001    3.1910014 
        4.03   -2.6275625    1.4726072    3.3331598 
        4.04   -2.6258606    1.4562167    3.4016965 
        4.05   -2.6258861    1.4643741    3.3518649 
        4.06   -2.6273299    1.4785388    3.2689977 
        4.07   -2.6273225    1.4888954     3.206619 
        4.08   -2.6273198    1.5002852     3.145155 
        4.09   -2.6286445    1.5101827    3.0956882 
         4.1   -2.6292894    1.5042962     3.122694 
        4.11   -2.6305737    1.4888908     3.192487 
        4.12   -2.6301807    1.4828484    3.2214199 
        4.13   -2.6284945    1.4885907    3.1970234 
        4.14   -2.6288912    1.4966833    3.1587363 
        4.15   -2.6312539    1.4992982    3.1479479 
        4.16   -2.6304766    1.4861134    3.2238554 
        4.17   -2.6304723    1.4539648    3.3957768 
        4.18   -2.6286332    1.4094219    3.6346964 
        4.19   -2.6271777    1.3691301    3.8571349 
         4.2   -2.6269243    1.3520429    3.9755038 
        4.21   -2.6263025    1.3513627    4.0242987 
        4.22   -2.6269677     1.340147    4.1210936 
        4.23   -2.6286475    1.3076277    4.3081227 
        4.24   -2.6293942    1.2728983    4.4907141 
        4.25   -2.6289967    1.2698585    4.5067794 
        4.26   -2.6300654    1.3032602    4.3275281 
        4.27   -2.6289038    1.3505401    4.0647212 
        4.28   -2.6290268    1.3992662    3.7786121 
        4.29   -2.6298173    1.4511013    3.4757368 
         4.3   -2.6306194    1.4963171    3.2139061 
        4.31   -2.6291765    1.5153737    3.0935424 
        4.32   -2.6290163    1.5128002    3.0921403 
        4.33   -2.6284932    1.5103186    3.1131399 
        4.34    -2.628643    1.5083649    3.1472607 
        4.35    -2.628378    1.4907372    3.2614672 
        4.36   -2.6280969     1.461468    3.4297983 
        4.37   -2.6276999    1.4391316    3.5615525 
        4.38   -2.6265276    1.4302181    3.6227525 
        4.39   -2.6270431    1.4301766    3.6291161 
         4.4   -2.6254743    1.4410431    3.5827312 
        4.41   -2.6265334    1.4626589    3.4857525 
        4.42   -2.6278623    1.4777124    3.4281732 
        4.43   -2.6272141    1.4656524    3.5097841 
        4.44    -2.625365    1.4257578    3.7285634 
        4.45   -2.6256096    1.3810487    3.9664833 
        4.46   -2.6280792    1.3525106    4.1186272 
        4.47   -2.6284754    1.3507231    4.1395538 
        4.48   -2.6290261    1.3705851    4.0508869 
        4.49   -2.6281294    1.3854286    3.9792221 
         4.5   -2.6281179    1.3787433    3.9971074 
        4.51   -2.6293983    1.3611697    4.0527483 
        4.52    -2.629376    1.3584713     4.028359 
        4.53   -2.6286087    1.3891896    3.8387271 
        4.54   -2.6285088     1.436606    3.5630893 
        4.55   -2.6281289    1.4672954    3.3648823 
        4.56   -2.6273412    1.4671777    3.3193937 
        4.57   -2.6269263    1.4398179    3.4127358 
        4.58   -2.6270187    1.4091626    3.5321765 
        4.59   -2.6258563    1.4099116    3.5187622 
         4.6   -2.6258823     1.433037    3.4024961 
        4.61   -2.6254947    1.4535307    3.2971346 
        4.62   -2.6274504    1.4624641    3.2420369 
        4.63   -2.6279704    1.4617427    3.2390817 
        4.64   -2.6277072    1.4545183    3.2774906 
        4.65   -2.6270625    1.4418545    3.3562704 
        4.66   -2.6261566    1.4185061    3.4987697 
        4.67   -2.6279639    1.3852626    3.6904219 
        4.68   -2.6278267    1.3635465    3.8346256 
        4.69   -2.6261436    1.3635047    3.8773679 
         4.7   -2.6254984    1.3741438    3.8581441 
        4.71   -2.6253543    1.3885404    3.8062491 
        4.72   -2.6249566    1.4157707    3.6839635 
        4.73   -2.6251057    1.4563325    3.4935345 
        4.74   -2.6243333     1.491662    3.3287957 
        4.75   -2.6234229    1.5088095     3.255136 
        4.76    -2.622912    1.5049303    3.2893465 
        4.77   -2.6231838    1.4718926    3.4642451 
        4.78   -2.6242071    1.4095279     3.769368 
        4.79   -2.6250713    1.3509016    4.0435995 
         4.8   -2.6249305    1.3516788    4.0336128 
        4.81   -2.6229336    1.4142961    3.7401512 
        4.82   -2.6223129    1.4562637    3.5415444 
        4.83   -2.6233347    1.4371224    3.6304958 
        4.84   -2.6240526     1.382391    3.8914829 
        4.85   -2.6236425    1.3564203    4.0254361 
        4.86   -2.6230165    1.3822445    3.9188643 
        4.87   -2.6233186    1.4271701    3.7191855 
        4.88   -2.6231895    1.4461797    3.6395585 
        4.89   -2.6229266    1.4253147     3.749541 
         4.9   -2.6233023    1.3684226    4.0264036 
        4.91   -2.6212826    1.3001177     4.350161 
        4.92     -2.62297    1.2785191    4.4401147 
        4.93   -2.6245971    1.3130919    4.2584209 
        4.94   -2.6246059    1.3505399    4.0520213 
        4.95   -2.6252375    1.3716669    3.9141663 
        4.96   -2.6264204    1.3860799    3.8091923 
        4.97   -2.6261694    1.3863733    3.7731043 
        4.98   -2.6265215    1.3723771    3.7991736 
        4.99   -2.6257181    1.3841794    3.7109566 
           5    -2.626025    1.4385803    3.4352159 
        5.01   -2.6264401    1.4911017      3.17893 
        5.02   -2.6263109    1.5094069    3.0956702 
        5.03   -2.6251239    1.4924721    3.1921178 
        5.04   -2.6261564     1.455836    3.3861185 
        5.05   -2.6268019    1.4166645    3.5939571 
        5.06   -2.6262767     1.384849    3.7633349 
        5.07   -2.6256069    1.3640753    3.8704579 
        5.08   -2.6261181    1.3640598    3.8691395 
        5.09   -2.6250723    1.3907151    3.7422135 
         5.1   -2.6257487    1.4368002    3.5269682 
        5.11     -2.62525     1.473531    3.3678086 
        5.12   -2.6244667    1.4752971    3.3840564 
        5.13   -2.6237838    1.4437504    3.5650518 
        5.14   -2.6242858    1.4064688     3.775715 
        5.15   -2.6259883    1.3854073    3.9062932 
        5.16   -2.6254757    1.3791714    3.9602345 
        5.17   -2.6257442    1.3794559    3.9666774 
        5.18   -2.6257349    1.3835128    3.9389565 
        5.19   -2.6257286    1.4036353    3.8244125 
         5.2   -2.6257712    1.4414668    3.6234193 
        5.21   -2.6264345    1.4607895    3.5043315 
        5.22   -2.6262902    1.4489939    3.5334923 
        5.23   -2.6270749    1.4164253    3.6628757 
        5.24   -2.6275502     1.373783    3.8390138 
        5.25   -2.6258455    1.3695258    3.8466922 
        5.26   -2.6253853    1.4064754    3.6693151 
        5.27   -2.6264134    1.4266615    3.5648343 
        5.28   -2.6283485    1.4297723    3.5389727 
        5.29   -2.6278166    1.4363215    3.5046199 
         5.3   -2.6290136    1.4533875    3.4237543 
        5.31   -2.6294122    1.4612969     3.389013 
        5.32   -2.6293966    1.4499732    3.4449696 
        5.33   -2.6291231    1.4315928    3.5353182 
        5.34   -2.6292526    1.4172385    3.6067566 
        5.35     -2.62912    1.4104185    3.6432784 
        5.36   -2.6297675    1.4126563    3.6362228 
        5.37   -2.6295072    1.4265788    3.5774731 
        5.38   -2.6292605    1.4480595    3.4856007 
        5.39   -2.6292672     1.463166    3.4241769 
         5.4   -2.6290074    1.4609447    3.4446272 
        5.41   -2.6283435    1.4415854    3.5457101 
        5.42   -2.6283323    1.4156873    3.6756653 
        5.43   -2.6278076    1.3958572    3.7772551 
        5.44   -2.6275487    1.3873333    3.8241855 
        5.45   -2.6266347    1.3906143    3.8162648 
        5.46   -2.6282123     1.405148    3.7552042 
        5.47   -2.6274572    1.4177322    3.7139983 
        5.48   -2.6265522    1.4047898    3.7980269 
        5.49   -2.6257479    1.3627947    4.0184417 
         5.5    -2.625965    1.3199922    4.2349935 
        5.51   -2.6266073    1.3173938    4.2539863 
        5.52   -2.6279575    1.3644728    4.0326304 
        5.53   -2.6289082    1.4214272     3.760708 
        5.54   -2.6298196    1.4493735    3.6242173 
        5.55   -2.6296718    1.4431196    3.6541718 
        5.56   -2.6290024    1.4171645     3.781116 
        5.57   -2.6293783    1.3923122    3.9008566 
        5.58   -2.6282168    1.3828458     3.947367 
        5.59   -2.6275795    1.3768032    3.9660697 
         5.6   -2.6258644    1.3614395    4.0123211 
        5.61   -2.6284523    1.3526406    4.0047731 
        5.62   -2.6276758    1.3705893    3.8681824 
        5.63   -2.6273088    1.4085377    3.6343599 
        5.64   -2.6277121     1.443738    3.4144902 
        5.65   -2.6290059    1.4640481    3.2705369 
        5.66   -2.6270408    1.4766549    3.1816866 
        5.67   -2.6275777    1.4880616    3.1118424 
        5.68   -2.6283689    1.4880853    3.1096347 
        5.69   -2.6279608    1.4702375    3.2046987 
         5.7   -2.6259931     1.445895    3.3440785 
        5.71     -2.62769    1.4276708    3.4589133 
        5.72   -2.6273001    1.4182627    3.5417042 
        5.73   -2.6283454    1.4143849    3.5977664 
        5.74   -2.6274319    1.4105127    3.6545719 
        5.75   -2.6267698    1.4044922    3.7156859 
        5.76   -2.6268905    1.4033516    3.7473721 
        5.77   -2.6288542    1.4155661    3.7097952 
        5.78   -2.6279638    1.4368318    3.6316005 
        5.79   -2.6265472    1.4487435    3.5945346 
         5.8   -2.6261353    1.4392388    3.6503945 
        5.81   -2.6259737    1.4328716    3.6896112 
        5.82   -2.6250985    1.4555082     3.598428 
        5.83   -2.6249848     1.474856    3.5190216 
        5.84    -2.623019    1.4672978    3.5666457 
        5.85   -2.6228791    1.4356028    3.7257105 
        5.86   -2.6237727    1.3926002    3.9353327 
        5.87    -2.624273    1.3617305    4.0858067 
        5.88   -2.6240177    1.3632326    4.0835788 
        5.89   -2.6240468    1.3907415    3.9572308 
         5.9   -2.6239411     1.417196    3.8352729 
        5.91   -2.6239432    1.4206219    3.8228351 
        5.92   -2.6240565    1.3994316    3.9296292 
        5.93   -2.6262584    1.3702544    4.0745933 
        5.94   -2.6248242    1.3485452    4.1900392 
        5.95   -2.6249601    1.3358713    4.2532161 
        5.96   -2.6252215    1.3282104    4.2794613 
        5.97   -2.6236426    1.3277575    4.2589241 
        5.98   -2.6235093    1.3464246    4.1324724 
        5.99   -2.6241739     1.386755    3.8936274 
           6   -2.6243087    1.4348752    3.6160064 
        6.01   -2.6251005    1.4805031    3.3578146 
        6.02   -2.6238103    1.5107319    3.1945555 
        6.03   -2.6240769    1.5074498    3.2094983 
        6.04   -2.6244455    1.4660253    3.4256283 
        6.05    -2.625071    1.4104894    3.7269973 
        6.06   -2.6250717    1.3687192    3.9767833 
        6.07   -2.6253244    1.3475213    4.1283595 
        6.08   -2.6238847    1.3536512    4.1462716 
        6.09   -2.6245612    1.3863155    4.0267204 
         6.1   -2.6255006    1.4208076    3.8876972 
        6.11   -2.6247234    1.4296231     3.863237 
        6.12   -2.6251038    1.4060797    3.9834702 
        6.13   -2.6242986    1.3634435    4.1899608 
        6.14   -2.6243996    1.3286545    4.3508376 
        6.15   -2.6242826    1.3271154    4.3485016 
        6.16   -2.6231326    1.3488818    4.2285191 
        6.17   -2.6233905    1.3705748    4.0963338 
        6.18   -2.6248239     1.389731    3.9701901 
        6.19   -2.6257439    1.4074448    3.8531204 
         6.2   -2.6261388    1.4193163     3.769541 
        6.21   -2.6267932    1.4219696    3.7379345 
        6.22   -2.6260004    1.4166449    3.7580345 
        6.23   -2.6257331    1.4121257    3.7872438 
        6.24   -2.6254771    1.4145832    3.7969893 
        6.25   -2.6266592    1.4195932    3.8018117 
        6.26   -2.6269302    1.4189931    3.8390121 
        6.27   -2.6258869    1.4048162    3.9407553 
        6.28   -2.6261292    1.3799931    4.0839926 
        6.29   -2.6270375    1.3630462    4.1813134 
         6.3   -2.6269081    1.3630668    4.1904396 
        6.31   -2.6269031    1.3787925    4.1151063 
        6.32   -2.6275677    1.4087445    3.9674193 
        6.33   -2.6273255    1.4383686    3.8233911 
        6.34    -2.627194    1.4492313    3.7707061 
        6.35   -2.6261406    1.4369254    3.8321728 
        6.36   -2.6246905    1.4117518    3.9551324 
        6.37   -2.6249448     1.389877    4.0548482 
        6.38   -2.6248236    1.3806908    4.0859065 
        6.39   -2.6248324    1.3789444    4.0687732 
         6.4   -2.6270454    1.3804713     4.021594 
        6.41   -2.6275721    1.3888067    3.9399701 
        6.42   -2.6267995    1.3991033    3.8489924 
        6.43   -2.6262812    1.4005053    3.7977151 
        6.44   -2.6265165    1.3932226    3.7862694 
        6.45   -2.6279399    1.4028997    3.7029613 
        6.46   -2.6279669    1.4403141    3.5078476 
        6.47   -2.6262909    1.4810896    3.3138368 
        6.48   -2.6277321    1.5011057    3.2233486 
        6.49   -2.6290331    1.4911186    3.2789459 
         6.5   -2.6277024    1.4597623    3.4339054 
        6.51   -2.6266521    1.4356565    3.5423382 
        6.52   -2.6277077    1.4313369    3.5374605 
        6.53    -2.627957     1.446762    3.4258411 
        6.54   -2.6273297    1.4840676    3.2075884 
        6.55   -2.6282265    1.5210959    2.9852845 
        6.56   -2.6279715    1.5579968    2.7750958 
        6.57   -2.6273387    1.5834857    2.6366687 
        6.58   -2.6272062    1.5753797    2.6716235 
        6.59   -2.6266544    1.5358468    2.8672904 
         6.6   -2.6255798    1.4941699    3.0823094 
        6.61   -2.6249338    1.4761919    3.1898621 
        6.62   -2.6249555    1.4784437    3.2013549 
        6.63     -2.62497    1.4815795     3.207107 
        6.64   -2.6240566    1.4734852    3.2676957 
        6.65   -2.6243151    1.4554649    3.3771041 
        6.66    -2.625755     1.431707    3.5165766 
        6.67   -2.6271917    1.4016147    3.6872544 
        6.68    -2.627301    1.3701058    3.8628245 
        6.69   -2.6262523    1.3570067    3.9494704 
         6.7   -2.6249794    1.3641477    3.9369912 
        6.71   -2.6234267    1.3651057    3.9454777 
        6.72   -2.6243204    1.3487402    4.0210093 
        6.73   -2.6225992    1.3369743    4.0704004 
        6.74   -2.6237855    1.3504674    3.9882885 
        6.75   -2.6245815     1.380102    3.8204221 
        6.76   -2.6250973    1.4108165    3.6405998 
        6.77    -2.626667    1.4410637     3.464444 
        6.78   -2.6270767    1.4634014    3.3382092 
        6.79   -2.6273303    1.4615752    3.3379725 
         6.8   -2.6270602     1.441102    3.4418307 
        6.81   -2.6270724      1.41052    3.6075878 
        6.82   -2.6258801    1.3669786    3.8407879 
        6.83   -2.6267657    1.3286317    4.0428274 
        6.84   -2.6253321    1.3222335     4.090616 
        6.85   -2.6248291    1.3483173    3.9725286 
        6.86   -2.6248451    1.3868475    3.7843865 
        6.87   -2.6251159    1.4194835    3.6201446 
        6.88   -2.6260302    1.4338305    3.5438027 
        6.89   -2.6252362    1.4310714    3.5573422 
         6.9   -2.6241883    1.4219693    3.6080431 
        6.91   -2.6244477    1.4108558     3.667437 
        6.92    -2.625997    1.4013226    3.7126012 
        6.93   -2.6262517    1.4061118    3.6880529 
        6.94    -2.627831    1.4266076    3.5838227 
        6.95   -2.6274439    1.4498381    3.4660502 
        6.96   -2.6271863    1.4696538    3.3651842 
        6.97    -2.627589    1.4831439    3.3006129 
        6.98     -2.62695    1.4804051    3.3234927 
        6.99   -2.6264159    1.4515933    3.4729537 
           7   -2.6249401    1.4114568    3.6752943 
        7.01   -2.6237537    1.3983282    3.7499537 
        7.02    -2.625629    1.4220217    3.6489686 
        7.03   -2.6256504    1.4412661    3.5691884 
        7.04   -2.6246021    1.4318038    3.6251153 
        7.05   -2.6251193    1.3968865    3.8001606 
        7.06   -2.6245643     1.349095    4.0363944 
        7.07    -2.623621    1.3269696    4.1554535 
        7.08   -2.6252441    1.3513814    4.0599687 
        7.09   -2.6244845    1.3734652    3.9773231 
         7.1   -2.6251281    1.3632058    4.0406211 
        7.11   -2.6247099    1.3254645    4.2302868 
        7.12    -2.623365     1.288308    4.4115367 
        7.13   -2.6232315    1.2861359    4.4192254 
        7.14   -2.6232523     1.322681     4.237748 
        7.15   -2.6240641    1.3764674    3.9719678 
        7.16   -2.6234311    1.4177224    3.7713462 
        7.17   -2.6239453    1.4261813    3.7277791 
        7.18   -2.6235244    1.4106473    3.7986383 
        7.19   -2.6245473    1.4046041    3.8161967 
         7.2   -2.6254738    1.4308919    3.6696072 
        7.21   -2.6258867    1.4775537    3.4135333 
        7.22    -2.627195    1.5202654    3.1658301 
        7.23   -2.6281017    1.5484905    2.9900438 
        7.24   -2.6281055    1.5613084    2.9013687 
        7.25   -2.6282336    1.5508104    2.9358248 
        7.26   -2.6301664    1.5180311    3.0814156 
        7.27   -2.6294992    1.4840922    3.2419483 
        7.28   -2.6295085    1.4628963    3.3406454 
        7.29   -2.6291184     1.449302    3.3961299 
         7.3   -2.6302941    1.4419731    3.4115648 
        7.31     -2.63135    1.4402609    3.3956467 
        7.32   -2.6306877    1.4396393    3.3734894 
        7.33   -2.6304117     1.452748    3.2897035 
        7.34   -2.6318814     1.488221    3.1106368 
        7.35   -2.6291544    1.5151124    2.9893151 
        7.36   -2.6281072    1.5105314    3.0234201 
        7.37   -2.6288815    1.4761138     3.204411 
        7.38    -2.630165    1.4252108    3.4653648 
        7.39   -2.6289654    1.3861117    3.6718232 
         7.4   -2.6298842    1.3849215    3.6910129 
        7.41   -2.6304295    1.4167893    3.5470792 
        7.42    -2.628494    1.4573281    3.3590268 
        7.43   -2.6284978    1.4821147    3.2383138 
        7.44   -2.6270527    1.4840763     3.228708 
        7.45   -2.6271681    1.4696984    3.2972512 
        7.46   -2.6258417    1.4547383    3.3751354 
        7.47   -2.6257238    1.4561425    3.3798819 
        7.48   -2.6248276    1.4641696    3.3554815 
        7.49   -2.6254552     1.468009    3.3443817 
         7.5   -2.6253543    1.4841274    3.2785966 
        7.51   -2.6247157    1.4931708    3.2431265 
        7.52   -2.6256109    1.4812996     3.297938 
        7.53   -2.6249605    1.4625668    3.3883052 
        7.54   -2.6245701    1.4396214    3.4978551 
        7.55   -2.6243937    1.4206357    3.5850557 
        7.56   -2.6238854    1.4438421    3.4811559 
        7.57   -2.6251117    1.4961345    3.2468302 
        7.58   -2.6248563    1.5265222      3.12513 
        7.59    -2.625106    1.5185929    3.1967888 
         7.6   -2.6257458    1.4803522    3.4257999 
        7.61   -2.6253284     1.428328    3.7288315 
        7.62   -2.6257062    1.3897234    3.9668906 
        7.63   -2.6244193    1.3800299    4.0639035 
        7.64   -2.6231219    1.3872061    4.0664206 
        7.65   -2.6235176    1.3997679    4.0257833 
        7.66   -2.6241773    1.4109295     3.980467 
        7.67   -2.6252226    1.4124999    3.9713041 
        7.68   -2.6240381     1.403836    4.0069538 
        7.69   -2.6238931     1.395148    4.0347984 
         7.7   -2.6237558    1.4004162    3.9916103 
        7.71   -2.6252008    1.4250127    3.8517148 
        7.72   -2.6259999    1.4584578    3.6716642 
        7.73   -2.6279619    1.4851492     3.527348 
        7.74   -2.6277047    1.4952093     3.474134 
        7.75   -2.6282228    1.4833473    3.5308283 
        7.76   -2.6276924      1.45159    3.6861585 
        7.77   -2.6272833    1.4109996    3.8799305 
        7.78   -2.6259621    1.3816988    4.0140759 
        7.79   -2.6264911     1.380559     4.002089 
         7.8   -2.6267685    1.4035827    3.8627874 
        7.81   -2.6258614    1.4354798    3.6683337 
        7.82   -2.6259821    1.4693716    3.4513118 
        7.83   -2.6257208    1.5095639     3.202636 
        7.84   -2.6253443    1.5529571    2.9448004 
        7.85   -2.6256148    1.5838663    2.7558321 
        7.86   -2.6277041    1.5911504    2.6906882 
        7.87    -2.627695    1.5759485    2.7538005 
        7.88   -2.6276769    1.5474036    2.9006012 
        7.89   -2.6274285    1.5190359    3.0707431 
         7.9   -2.6265498    1.4798997    3.3101358 
        7.91   -2.6270553    1.4066047    3.7085279 
        7.92   -2.6285474      1.32623    4.1299901 
        7.93   -2.6284306    1.3080193    4.2578436 
        7.94   -2.6283544    1.3449539    4.1109391 
        7.95   -2.6276782    1.3875369    3.9083728 
        7.96   -2.6287281    1.4422143    3.6300386 
        7.97    -2.629282    1.4975858    3.3458904 
        7.98    -2.628361    1.5200148    3.2216674 
        7.99   -2.6283384    1.5097649    3.2612293 
           8   -2.6272804    1.4856423    3.3818509 
        8.01   -2.6276634    1.4627343    3.5039132 
        8.02   -2.6264922    1.4511208    3.5802343 
        8.03   -2.6266386    1.4478873    3.6169483 
        8.04   -2.6270339    1.4387228    3.6802063 
        8.05   -2.6282013     1.419932    3.7865821 
        8.06   -2.6278061    1.4009698    3.8973698 
        8.07   -2.6263705    1.3878684    3.9838842 
        8.08   -2.6253257    1.3810557    4.0409763 
        8.09   -2.6240155     1.379695    4.0711639 
         8.1   -2.6240197     1.385114    4.0630602 
        8.11   -2.6239036    1.3913092    4.0437926 
        8.12   -2.6239026    1.3857903    4.0672661 
        8.13   -2.6275321    1.3709163    4.1133565 
        8.14   -2.6265947    1.3757639    4.0607242 
        8.15   -2.6265009    1.4199819    3.8139798 
        8.16   -2.6277091    1.4696946    3.5315615 
        8.17   -2.6274433    1.4892549    3.3896307 
        8.18   -2.6279403    1.4792422    3.3907934 
        8.19   -2.6288461    1.4584792    3.4528076 
         8.2   -2.6291164    1.4347827    3.5384537 
        8.21   -2.6284658    1.4043678    3.6589906 
        8.22   -2.6289766    1.3735972    3.7750882 
        8.23   -2.6278934    1.3638312    3.7877562 
        8.24   -2.6273892    1.4107887    3.5364271 
        8.25   -2.6271877    1.4947593    3.1205138 
        8.26   -2.6277286    1.5527708    2.8348016 
        8.27   -2.6283653     1.556782    2.8168802 
        8.28   -2.6276783    1.5199457    3.0098008 
        8.29   -2.6263448     1.475701    3.2525689 
         8.3   -2.6266058    1.4530205    3.4007926 
        8.31   -2.6272863    1.4531591    3.4440754 
        8.32   -2.6280952    1.4519802    3.4892633 
        8.33   -2.6283529    1.4280854     3.631297 
        8.34   -2.6287015    1.3902399    3.8234946 
        8.35   -2.6272333    1.3826436    3.8668074 
        8.36   -2.6263654    1.4328187    3.6413063 
        8.37   -2.6247254    1.4977337    3.3568121 
        8.38   -2.6259054    1.5213065    3.2731368 
        8.39   -2.6245622    1.4946684    3.4397304 
         8.4   -2.6250465    1.4531445    3.6781528 
        8.41   -2.6246623    1.4313366    3.8216533 
        8.42   -2.6220682    1.4274338    3.8719129 
        8.43   -2.6212914    1.4265638    3.8910402 
        8.44   -2.6225936     1.419188    3.9262322 
        8.45   -2.6241556    1.4048732    3.9849213 
        8.46    -2.624162    1.3863847    4.0582651 
        8.47   -2.6255892    1.3635062    4.1405144 
        8.48   -2.6266096    1.3490526    4.1754125 
        8.49   -2.6270178    1.3614096    4.0828981 
         8.5   -2.6263913    1.3868477    3.9293877 
        8.51   -2.6260012    1.4007063     3.829779 
        8.52   -2.6257255    1.3989013    3.8077124 
        8.53   -2.6259853     1.391248    3.8190042 
        8.54   -2.6267619    1.3817839    3.8413829 
        8.55   -2.6263716    1.3762484    3.8486394 
        8.56   -2.6261231    1.3740508    3.8393402 
        8.57   -2.6272815    1.3716948     3.826144 
        8.58   -2.6279454     1.384013    3.7500556 
        8.59   -2.6271863    1.4023304    3.6551519 
         8.6   -2.6270503    1.4074794    3.6265769 
        8.61   -2.6269135    1.3994489    3.6652651 
        8.62   -2.6276663    1.3856912    3.7286624 
        8.63   -2.6276519    1.3914857    3.6966251 
        8.64   -2.6268876    1.4285802    3.5102109 
        8.65   -2.6262494    1.4796803     3.247468 
        8.66   -2.6266469    1.5239383    3.0116602 
        8.67   -2.6256013    1.5507064    2.8670314 
        8.68   -2.6258612    1.5578733    2.8256219 
        8.69   -2.6252077     1.545674    2.8890115 
         8.7   -2.6251938    1.5205324    3.0199642 
        8.71   -2.6264929    1.4975915    3.1426373 
        8.72   -2.6263586    1.4878664    3.2084978 
        8.73   -2.6276726     1.496963    3.1923527 
        8.74   -2.6270606    1.5129974    3.1621834 
        8.75   -2.6270584    1.5019597    3.2694178 
        8.76   -2.6267723    1.4617876    3.5208802 
        8.77     -2.62624    1.4148047     3.805205 
        8.78    -2.626102    1.3720703    4.0563545 
        8.79   -2.6255659    1.3456438    4.2100665 
         8.8   -2.6256903    1.3499938    4.1963176 
        8.81   -2.6245321    1.3895145    4.0057572 
        8.82   -2.6245802    1.4427851    3.7473237 
        8.83   -2.6256553    1.4615963    3.6532692 
        8.84   -2.6253595     1.420525    3.8461921 
        8.85   -2.6258257    1.3553515    4.1542868 
        8.86   -2.6256777    1.3234856     4.307252 
        8.87   -2.6274014    1.3455909    4.1997181 
        8.88   -2.6271887    1.3963063    3.9577193 
        8.89   -2.6277357    1.4261948    3.8108476 
         8.9    -2.627044    1.4133178    3.8655192 
        8.91   -2.6259699    1.3927603    3.9594192 
        8.92   -2.6262399    1.3920693    3.9567649 
        8.93   -2.6274095    1.4028631    3.8881318 
        8.94    -2.627811    1.4243862     3.761995 
        8.95   -2.6283581    1.4447867     3.634864 
        8.96   -2.6274406    1.4434365    3.6039495 
        8.97   -2.6279244    1.4281939    3.6297323 
        8.98   -2.6272518    1.4363337    3.5498504 
        8.99   -2.6267665     1.482996    3.2969361 
           9   -2.6267869    1.5369993    3.0159395 
        9.01   -2.6287645    1.5708515    2.8376536 
        9.02   -2.6288834    1.5658851    2.8540766 
        9.03   -2.6301514    1.5326562    3.0068887 
        9.04   -2.6302677    1.5051215    3.1389717 
        9.05    -2.630155    1.4987603    3.1742391 
        9.06    -2.629525    1.4972411    3.1867634 
        9.07    -2.628865    1.4820382    3.2601656 
        9.08   -2.6283214    1.4574865    3.3715148 
        9.09   -2.6286894    1.4468889    3.4077444 
         9.1   -2.6281757    1.4710917    3.2740796 
        9.11   -2.6288576    1.5184546    3.0216906 
        9.12   -2.6270417    1.5579663     2.804089 
        9.13   -2.6272944    1.5725017    2.7010469 
        9.14   -2.6277949    1.5689491    2.6918865 
        9.15   -2.6294887    1.5641214    2.7025773 
        9.16    -2.628325    1.5619345    2.7223884 
        9.17   -2.6282011    1.5537547    2.7821777 
        9.18   -2.6268975    1.5333054    2.9093832 
        9.19   -2.6275352    1.5038237     3.075982 
         9.2   -2.6286898    1.4814193    3.2023334 
        9.21    -2.629214    1.4832801    3.2075739 
        9.22   -2.6287092    1.5076061    3.1013517 
        9.23   -2.6282012    1.5357739    2.9723056 
        9.24   -2.6283276    1.5530701    2.8945015 
        9.25   -2.6293802    1.5579101    2.8820684 
        9.26   -2.6287315     1.544908     2.963791 
        9.27   -2.6279259    1.5103867    3.1466964 
        9.28   -2.6292067    1.4762371    3.3200313 
        9.29   -2.6286971     1.463252     3.389471 
         9.3   -2.6297479    1.4635811    3.3803633 
        9.31   -2.6289665    1.4689497      3.33622 
        9.32    -2.628843    1.4766926    3.2689987 
        9.33   -2.6300151    1.4820075    3.2030749 
        9.34   -2.6302652    1.4896105    3.1251899 
        9.35   -2.6310502    1.5089906    2.9963249 
        9.36   -2.6300192    1.5345625    2.8515714 
        9.37   -2.6295045     1.553118     2.752765 
        9.38   -2.6295047    1.5564228    2.7413506 
        9.39   -2.6293709    1.5438365    2.8220608 
         9.4   -2.6296276    1.5212441    2.9658301 
        9.41   -2.6297713    1.4926436    3.1524742 
        9.42   -2.6302994    1.4509449    3.4073353 
        9.43   -2.6297617    1.3936094    3.7354922 
        9.44   -2.6292142    1.3411897    4.0322883 
        9.45   -2.6280363    1.3240312    4.1543959 
        9.46   -2.6285998    1.3483941    4.0694135 
        9.47   -2.6303401    1.3770493    3.9508644 
        9.48    -2.628504    1.3695518    3.9936935 
        9.49    -2.627023    1.3350315    4.1535893 
         9.5   -2.6276639    1.3147163    4.2417373 
        9.51   -2.6287247    1.3210323    4.2001282 
        9.52   -2.6284717      1.34006    4.0898817 
        9.53   -2.6270205    1.3656511    3.9381905 
        9.54   -2.6270157    1.4090972    3.6948396 
        9.55   -2.6291369    1.4688836    3.3744686 
        9.56   -2.6294212    1.5124026    3.1381173 
        9.57    -2.628623    1.5149595    3.0986738 
        9.58    -2.629232    1.4928507    3.1741097 
        9.59   -2.6287037    1.4881473    3.1710021 
         9.6   -2.6270344    1.5094404     3.044376 
        9.61   -2.6271835    1.5317846    2.9037393 
        9.62   -2.6279601    1.5375539    2.8376101 
        9.63   -2.6291161    1.5350799    2.8144406 
        9.64   -2.6265118     1.541488    2.7651135 
        9.65   -2.6257351    1.5534675    2.6923608 
        9.66    -2.626118    1.5661025    2.6162366 
        9.67   -2.6262515    1.5877494    2.5015219 
        9.68   -2.6262798    1.6139746    2.3707989 
        9.69   -2.6265404     1.621095    2.3336505 
         9.7   -2.6266503     1.611879     2.384153 
        9.71   -2.6266634    1.6019411    2.4576608 
        9.72    -2.626801     1.581948      2.59597 
        9.73   -2.6274471    1.5418689    2.8398657 
        9.74    -2.626126    1.4859895    3.1649363 
        9.75   -2.6263733    1.4313049    3.4777932 
        9.76   -2.6268858    1.3942304    3.6968485 
        9.77   -2.6266216    1.3884803    3.7581489 
        9.78    -2.628211    1.4148955    3.6564814 
        9.79    -2.627447    1.4490277    3.5141527 
         9.8   -2.6282238    1.4694931    3.4276458 
        9.81   -2.6271768    1.4775853    3.4016679 
        9.82   -2.6256202    1.4771039    3.4194285 
        9.83   -2.6262782     1.461568    3.5066956 
        9.84   -2.6260027    1.4299591     3.674948 
        9.85   -2.6279536    1.3955574    3.8617578 
        9.86   -2.6283493    1.3649865    4.0417496 
        9.87   -2.6295181    1.3367932    4.2116825 
        9.88   -2.6290041    1.3153825    4.3488403 
        9.89   -2.6292697    1.2963063    4.4605555 
         9.9   -2.6274168    1.2778184      4.54975 
        9.91     -2.62818    1.2820571    4.5041794 
        9.92     -2.62846    1.3234721    4.2654951 
        9.93   -2.6286155    1.3844342    3.9218316 
        9.94   -2.6292742    1.4387394    3.6055012 
        9.95   -2.6284896    1.4737982     3.391406 
        9.96   -2.6298031    1.4875459    3.2929176 
        9.97   -2.6313708    1.4736424    3.3422436 
        9.98   -2.6308233    1.4353065    3.5226939 
        9.99   -2.6297715    1.3952455    3.7215001 
          10   -2.6309457    1.3667962    3.8646418 
Loop time of 0.817686 on 8 procs for 10000 steps with 125 atoms

Performance: 1056640.219 tau/day, 12229.632 timesteps/s
137.6% CPU use with 1 MPI tasks x 8 OpenMP threads

MPI task timing breakdown:
Section |  min time  |  avg time  |  max time  |%varavg| %total
---------------------------------------------------------------
Pair    | 0.50545    | 0.50545    | 0.50545    |   0.0 | 61.81
Neigh   | 0          | 0          | 0          |   0.0 |  0.00
Comm    | 0.034884   | 0.034884   | 0.034884   |   0.0 |  4.27
Output  | 0.016969   | 0.016969   | 0.016969   |   0.0 |  2.08
Modify  | 0.25739    | 0.25739    | 0.25739    |   0.0 | 31.48
Other   |            | 0.002992   |            |       |  0.37

Nlocal:        125.000 ave         125 max         125 min
Histogram: 1 0 0 0 0 0 0 0 0 0
Nghost:        2212.00 ave        2212 max        2212 min
Histogram: 1 0 0 0 0 0 0 0 0 0
Neighs:        18971.0 ave       18971 max       18971 min
Histogram: 1 0 0 0 0 0 0 0 0 0

Total # of neighbors = 18971
Ave neighs/atom = 151.76800
Neighbor list builds = 24
Dangerous builds = 0
unfix nve
reset_timestep 0

### BRING SYSTEM TO REQUIRED STATE ###
variable tdamp equal ${timestep}*100
variable tdamp equal 0.001*100
variable pdamp equal ${timestep}*1000
variable pdamp equal 0.001*1000
fix npt all npt temp ${T} ${T} ${tdamp} iso ${p} ${p} ${pdamp}
fix npt all npt temp 1.75 ${T} ${tdamp} iso ${p} ${p} ${pdamp}
fix npt all npt temp 1.75 1.75 ${tdamp} iso ${p} ${p} ${pdamp}
fix npt all npt temp 1.75 1.75 0.1 iso ${p} ${p} ${pdamp}
fix npt all npt temp 1.75 1.75 0.1 iso 3 ${p} ${pdamp}
fix npt all npt temp 1.75 1.75 0.1 iso 3 3 ${pdamp}
fix npt all npt temp 1.75 1.75 0.1 iso 3 3 1
run 10000
Last active /omp style is pair_style lj/cut/omp
Per MPI rank memory allocation (min/avg/max) = 10.63 | 10.63 | 10.63 Mbytes
Time TotEng Temp Press 
          10   -2.6309457    1.3667962    3.8646418 
       10.01   -2.6265175    1.3586592     3.921751 
       10.02   -2.6125688    1.3846787    3.8401542 
       10.03   -2.5914699    1.4376612    3.6547676 
       10.04   -2.5613903    1.4814347    3.5403387 
       10.05   -2.5246751    1.4851239    3.6344779 
       10.06   -2.4825798    1.4642775    3.8566395 
       10.07   -2.4371732    1.4742901    3.9442097 
       10.08   -2.3901027    1.5344612    3.8030915 
       10.09   -2.3420942    1.5957187    3.6484892 
        10.1   -2.2978806    1.6259419    3.6162211 
       10.11   -2.2618429    1.6310443    3.6730312 
       10.12   -2.2323369    1.6221044    3.7710461 
       10.13   -2.2084674    1.6034725    3.8891769 
       10.14   -2.1892533    1.5833169    3.9892931 
       10.15   -2.1741788    1.5544728    4.0928877 
       10.16   -2.1602183    1.5542573    4.0366743 
       10.17   -2.1443976    1.6311245    3.6301922 
       10.18   -2.1250454    1.7273758    3.1512305 
       10.19   -2.1067426    1.7687615    2.9323984 
        10.2   -2.0897751    1.7497171    3.0014274 
       10.21   -2.0757832    1.6827293    3.2870167 
       10.22   -2.0651387    1.5860157    3.6817291 
       10.23   -2.0545237    1.5218455    3.8995729 
       10.24   -2.0384752    1.5521716      3.68569 
       10.25   -2.0189498    1.6274405    3.2659801 
       10.26   -1.9931446    1.7006787    2.8736916 
       10.27    -1.964551     1.749928    2.6190533 
       10.28   -1.9368472    1.7637619    2.5535425 
       10.29    -1.910589    1.7367366    2.6949589 
        10.3   -1.8891635    1.6773439    2.9889581 
       10.31   -1.8693153    1.6191915     3.285032 
       10.32   -1.8493652    1.5800704     3.497445 
       10.33   -1.8283795    1.5589283     3.618632 
       10.34   -1.8066993    1.5728527    3.5708373 
       10.35   -1.7827059    1.6238972    3.3490108 
       10.36   -1.7560075    1.6820402    3.0834565 
       10.37   -1.7268983    1.7253281    2.8734797 
       10.38    -1.699573    1.7514538    2.7310039 
       10.39   -1.6758699    1.7651129     2.637799 
        10.4     -1.65472    1.7742087    2.5616067 
       10.41   -1.6355751    1.7955669    2.4339218 
       10.42   -1.6181832    1.8312483    2.2490595 
       10.43   -1.6054448    1.8563692    2.1067464 
       10.44   -1.5957766     1.847535    2.1057375 
       10.45   -1.5886156    1.8163104     2.202368 
       10.46   -1.5835866    1.7882815    2.2965427 
       10.47   -1.5810693    1.7564953    2.4120893 
       10.48   -1.5782939    1.7126944    2.5794813 
       10.49   -1.5750548    1.6701307    2.7384389 
        10.5   -1.5704934    1.6503465    2.7994997 
       10.51   -1.5607641    1.6515626    2.7737661 
       10.52   -1.5510587     1.660109    2.7106278 
       10.53   -1.5350503    1.6793737    2.6120736 
       10.54   -1.5178953    1.7062492     2.486571 
       10.55    -1.497791    1.7398562    2.3434465 
       10.56   -1.4744997    1.7809147    2.1858452 
       10.57   -1.4511855    1.8105926    2.0881477 
       10.58   -1.4271109    1.8180334    2.0978472 
       10.59   -1.4045547    1.8121469    2.1775828 
        10.6   -1.3814661    1.8153582    2.2404737 
       10.61   -1.3604318     1.840816    2.2279229 
       10.62   -1.3393087    1.8771379    2.1838119 
       10.63   -1.3207287    1.9013016    2.1915587 
       10.64   -1.3027876    1.9019634    2.2945523 
       10.65   -1.2904769    1.8878565    2.4459804 
       10.66   -1.2801838    1.8705726    2.5970322 
       10.67   -1.2736152    1.8653232    2.6780727 
       10.68   -1.2691947    1.8999371    2.5842895 
       10.69   -1.2685284     1.942196    2.4442127 
        10.7   -1.2771117    1.9396625    2.4614551 
       10.71   -1.2936194    1.8938829    2.6362739 
       10.72     -1.31975    1.8302678    2.8612929 
       10.73   -1.3545111     1.787457     2.977158 
       10.74   -1.3962173    1.7852059     2.904752 
       10.75   -1.4467904    1.7825949    2.8059544 
       10.76   -1.5048736    1.7457447    2.8309357 
       10.77   -1.5637157    1.6690587    3.0244825 
       10.78   -1.6150873    1.5674352    3.3393616 
       10.79   -1.6580752    1.4885554    3.5750694 
        10.8   -1.6912047    1.4951149    3.4707379 
       10.81   -1.7176738    1.5821507    3.0393583 
       10.82    -1.738283    1.6740626    2.5949017 
       10.83   -1.7566385    1.7212771    2.3531079 
       10.84   -1.7726698    1.7105275    2.3802879 
       10.85   -1.7852847    1.6596397    2.6050104 
       10.86   -1.7917188    1.6146978    2.8366356 
       10.87   -1.7950621    1.5897941    3.0004045 
       10.88   -1.7930684     1.559858    3.1872087 
       10.89   -1.7860805    1.5282142    3.3746238 
        10.9   -1.7750577    1.5337498    3.4015962 
       10.91   -1.7585787    1.5877961    3.2273231 
       10.92   -1.7362744    1.6588311     2.989448 
       10.93   -1.7110545     1.719878    2.8067396 
       10.94   -1.6859038    1.7602728    2.7280508 
       10.95   -1.6583795    1.7670255    2.8089965 
       10.96   -1.6318769    1.7654417    2.9378665 
       10.97   -1.6038676    1.7920626    2.9662865 
       10.98   -1.5773379    1.8142452    3.0120079 
       10.99   -1.5497258    1.8365233    3.0598657 
          11   -1.5242457    1.8434091    3.1635213 
       11.01   -1.4993945    1.8275802    3.3495695 
       11.02   -1.4789884     1.816006    3.4994492 
       11.03   -1.4609039    1.8330437    3.5157572 
       11.04   -1.4412149    1.8687649    3.4461639 
       11.05   -1.4260083    1.8966669    3.3937156 
       11.06   -1.4149378    1.9042377     3.412214 
       11.07   -1.4059109    1.8989946    3.4735092 
       11.08      -1.4019    1.8850887    3.5522751 
       11.09   -1.4006571    1.8711954    3.6152368 
        11.1   -1.4060559    1.8481876    3.6940985 
       11.11   -1.4173946    1.8083578    3.8192454 
       11.12    -1.435158    1.8019563    3.7895135 
       11.13   -1.4588392    1.8166766    3.6554235 
       11.14   -1.4894947    1.8110213    3.5847436 
       11.15   -1.5274989    1.7838237    3.5825464 
       11.16   -1.5708354    1.7413969    3.6200318 
       11.17   -1.6194291    1.6952554    3.6424569 
       11.18   -1.6698046     1.659226    3.5927852 
       11.19   -1.7189385    1.6535077    3.3954251 
        11.2   -1.7655241    1.6836926    3.0428737 
       11.21   -1.8113387    1.7114926     2.705671 
       11.22   -1.8550142    1.7048432    2.5323741 
       11.23   -1.8937019    1.6650478    2.5295608 
       11.24   -1.9293409    1.6203648    2.5790666 
       11.25   -1.9582633     1.589863    2.6039835 
       11.26   -1.9833606    1.5604235    2.6468803 
       11.27   -2.0023747    1.5167785    2.7655296 
       11.28   -2.0137662    1.4771764    2.8814407 
       11.29   -2.0176325    1.4731393    2.8636012 
        11.3   -2.0152825    1.4977849    2.7396126 
       11.31   -2.0053769    1.5144528      2.66505 
       11.32   -1.9909102    1.5126068    2.6848454 
       11.33   -1.9686228    1.5147517    2.7171264 
       11.34   -1.9385414    1.5348904    2.7059738 
       11.35   -1.9012105      1.56467    2.6827399 
       11.36   -1.8574564    1.5992796    2.6646424 
       11.37    -1.810044    1.6396073    2.6433759 
       11.38   -1.7604712    1.6832223    2.6263621 
       11.39    -1.712187    1.7229077    2.6390189 
        11.4   -1.6691295    1.7417608    2.7440317 
       11.41   -1.6280186    1.7255368    2.9998489 
       11.42   -1.5939474    1.6822667    3.3578015 
       11.43   -1.5643579    1.6437166    3.6807185 
       11.44   -1.5373893    1.6337692    3.8609177 
       11.45   -1.5104571    1.6447761    3.9212162 
       11.46   -1.4861078    1.6734093     3.869667 
       11.47   -1.4625173    1.7330487    3.6651087 
       11.48   -1.4448063    1.8071252    3.3764413 
       11.49   -1.4283436    1.8653793    3.1361868 
        11.5   -1.4166291    1.9029701    2.9607394 
       11.51   -1.4101906    1.9230679    2.8368948 
       11.52   -1.4109751    1.9258061    2.7614937 
       11.53   -1.4158802     1.913875     2.727378 
       11.54   -1.4258847    1.8994464     2.682327 
       11.55   -1.4395701    1.9024237    2.5493383 
       11.56   -1.4568954    1.9295326    2.3076351 
       11.57   -1.4822386    1.9549822    2.0628732 
       11.58   -1.5114603    1.9452992    1.9622347 
       11.59   -1.5458833    1.8969585    2.0212917 
        11.6   -1.5824617    1.8419671    2.1163497 
       11.61   -1.6177913    1.8115375    2.1272073 
       11.62   -1.6543813    1.8031833    2.0626108 
       11.63    -1.690773    1.7875362    2.0461332 
       11.64    -1.724147    1.7405049    2.1797128 
       11.65   -1.7516035    1.6733662    2.4183255 
       11.66    -1.773995    1.6151689    2.6335774 
       11.67   -1.7880211     1.604977    2.6666669 
       11.68   -1.8002197    1.6466144    2.4967053 
       11.69   -1.8087008       1.6809    2.3748255 
        11.7    -1.812984    1.6630799    2.4924109 
       11.71   -1.8133693    1.6149546    2.7630908 
       11.72   -1.8102122      1.57573    3.0181927 
       11.73   -1.7990507    1.5430175    3.2554207 
       11.74    -1.785342    1.5412144    3.3587567 
       11.75   -1.7657091     1.581662    3.2829013 
       11.76   -1.7415405     1.655774    3.0661525 
       11.77   -1.7161273     1.739471    2.8156312 
       11.78   -1.6897886    1.7963257    2.6936648 
       11.79   -1.6660604     1.806759    2.7819556 
        11.8   -1.6449359    1.7935847    2.9847522 
       11.81   -1.6242424    1.7925677    3.1488914 
       11.82   -1.6068242    1.7962166    3.2879199 
       11.83   -1.5903061    1.7859095    3.4715914 
       11.84   -1.5746838    1.7737571    3.6421017 
       11.85   -1.5616803    1.7939499    3.6517686 
       11.86    -1.550862    1.8427274    3.5189347 
       11.87   -1.5431381    1.8693387    3.4594745 
       11.88   -1.5396744    1.8484243    3.5831561 
       11.89    -1.539909    1.8127735    3.7575959 
        11.9   -1.5423797    1.7907957    3.8630571 
       11.91   -1.5470666    1.7838234    3.8901885 
       11.92   -1.5541393    1.7889564    3.8520214 
       11.93   -1.5643669     1.785542    3.8352384 
       11.94   -1.5760295    1.7570259    3.9115764 
       11.95    -1.591253    1.7339879    3.9520221 
       11.96   -1.6075376    1.7321924    3.8911249 
       11.97    -1.627893    1.7256961    3.8246667 
       11.98   -1.6509905    1.7087001     3.774316 
       11.99   -1.6820868    1.7043758    3.6342637 
          12   -1.7216667    1.7258569    3.3491838 
       12.01   -1.7701466    1.7489903    3.0214433 
       12.02   -1.8327355    1.7311033    2.8260502 
       12.03   -1.9055999     1.652611    2.8584036 
       12.04   -1.9793711    1.5425223    3.0203047 
       12.05   -2.0464285    1.4818668    2.9979627 
       12.06   -2.1028227    1.4904823    2.7196283 
       12.07   -2.1519456    1.5034657    2.4481863 
       12.08    -2.191259    1.5002005    2.2798701 
       12.09   -2.2198795    1.4906786    2.1779867 
        12.1   -2.2403519    1.4820256    2.1086505 
       12.11   -2.2523704    1.4705683    2.0867449 
       12.12   -2.2551004    1.4532048     2.126571 
       12.13   -2.2514889    1.4345696     2.205631 
       12.14   -2.2386586    1.4195845    2.3067337 
       12.15   -2.2180741    1.4110277    2.4123587 
       12.16   -2.1892644    1.4214221    2.4679609 
       12.17   -2.1520421    1.4649495    2.4154159 
       12.18   -2.1072941    1.5275522    2.3131529 
       12.19   -2.0566083    1.5768668    2.2939777 
        12.2   -2.0028232    1.5977056    2.4149469 
       12.21   -1.9481608    1.6025747    2.6155065 
       12.22   -1.8961879    1.6099484     2.804799 
       12.23   -1.8467748    1.6249626    2.9510979 
       12.24   -1.7992696    1.6435793    3.0634361 
       12.25   -1.7557871    1.6710381    3.1130686 
       12.26   -1.7143084    1.7371416     2.985803 
       12.27   -1.6776074    1.8270394      2.74711 
       12.28   -1.6459962     1.881756    2.6468167 
       12.29   -1.6192805    1.8833936    2.7664201 
        12.3   -1.5994695     1.852434    3.0189208 
       12.31   -1.5843935    1.8156546    3.2902586 
       12.32   -1.5699229    1.7846549    3.5292361 
       12.33   -1.5574842    1.7608484    3.7206198 
       12.34   -1.5474062    1.7421048    3.8694249 
       12.35   -1.5382728    1.7294384    3.9737176 
       12.36   -1.5298021    1.7261809     4.022157 
       12.37   -1.5216976     1.745466    3.9680601 
       12.38   -1.5140767    1.7696401    3.8924199 
       12.39   -1.5087242    1.7684318    3.9201379 
        12.4     -1.50406    1.7446231    4.0340492 
       12.41   -1.4997834    1.7343747    4.0724357 
       12.42    -1.497043    1.7622945    3.9246965 
       12.43   -1.4931191    1.8151004    3.6514501 
       12.44   -1.4902612    1.8743775    3.3367626 
       12.45   -1.4906527    1.9153538    3.0928752 
       12.46   -1.4975657     1.919301    3.0034778 
       12.47    -1.508794    1.8835341    3.0877766 
       12.48   -1.5260936    1.8176357    3.2975028 
       12.49   -1.5482835    1.7627764    3.4554206 
        12.5   -1.5707795    1.7331275    3.4977305 
       12.51   -1.5956419    1.7270501    3.4239066 
       12.52   -1.6206479      1.74514    3.2419369 
       12.53   -1.6474214    1.7508791    3.1068284 
       12.54   -1.6779551    1.7180759    3.1280465 
       12.55   -1.7100966    1.6575659    3.2639212 
       12.56   -1.7415108    1.5980726    3.3938156 
       12.57    -1.771743    1.5587267    3.4322201 
       12.58    -1.798723    1.5393987    3.3777407 
       12.59   -1.8218191    1.5330725    3.2604344 
        12.6   -1.8396508    1.5420519    3.0788986 
       12.61   -1.8538022    1.5737654    2.8113816 
       12.62   -1.8631987    1.6159088    2.5206249 
       12.63   -1.8669949    1.6450649    2.3132824 
       12.64   -1.8654997    1.6454776    2.2580558 
       12.65   -1.8596808    1.6258837    2.3177232 
       12.66   -1.8495651     1.618902    2.3591097 
       12.67   -1.8329451    1.6363587    2.3361836 
       12.68   -1.8103287       1.6663    2.2991197 
       12.69   -1.7801386    1.6755905    2.3843379 
        12.7   -1.7440264    1.6334209    2.7034837 
       12.71   -1.7015157    1.5844668     3.064681 
       12.72    -1.655946    1.6182392     3.102266 
       12.73   -1.6026393    1.6903998    2.9944305 
       12.74   -1.5467821    1.7429851    2.9660757 
       12.75   -1.4927367    1.7765049    3.0100424 
       12.76   -1.4410824    1.7985432    3.0883821 
       12.77   -1.3972999     1.815162    3.1623031 
       12.78   -1.3590179    1.8219156    3.2482999 
       12.79   -1.3290298    1.8115468    3.3677252 
        12.8   -1.3019446    1.7949147    3.4820023 
       12.81   -1.2817552    1.8026239    3.4634612 
       12.82   -1.2653099    1.8553665    3.2412443 
       12.83   -1.2522734    1.9177122    2.9660784 
       12.84   -1.2454497    1.9409705    2.8368202 
       12.85   -1.2438567    1.9179392    2.8890766 
       12.86   -1.2498626    1.8842948    2.9789492 
       12.87   -1.2579208    1.8724982    2.9832868 
       12.88   -1.2719306    1.8740915    2.9264835 
       12.89   -1.2877662    1.8596615     2.925048 
        12.9   -1.3048803    1.8352067     2.951484 
       12.91   -1.3258876    1.8061966    2.9688592 
       12.92   -1.3476242    1.8289666    2.7597365 
       12.93    -1.374041    1.9090494     2.304751 
       12.94   -1.4061518    1.9639214    1.9381374 
       12.95   -1.4437142    1.9536913    1.8336969 
       12.96   -1.4882471    1.8974604     1.924169 
       12.97   -1.5347465    1.8275227     2.088149 
       12.98   -1.5787301     1.758363    2.2646686 
       12.99   -1.6171945     1.717221    2.3445182 
          13   -1.6520967    1.7052732    2.3177254 
       13.01    -1.682908    1.6973087    2.2863779 
       13.02   -1.7067545     1.679701    2.3127359 
       13.03   -1.7264654    1.6552149    2.3821838 
       13.04   -1.7408787    1.6358157    2.4440066 
       13.05   -1.7491632    1.6305959    2.4568114 
       13.06   -1.7530774    1.6496455    2.3764393 
       13.07   -1.7518279    1.6897851     2.222019 
       13.08   -1.7483384    1.7283629    2.0888275 
       13.09   -1.7424479    1.7539709    2.0335481 
        13.1   -1.7377995    1.7697804    2.0464692 
       13.11   -1.7325284    1.7627546    2.1808242 
       13.12   -1.7283222    1.7314998    2.4330601 
       13.13   -1.7207225    1.6973377    2.7145118 
       13.14   -1.7101454    1.6754408    2.9530809 
       13.15   -1.6969954    1.6550613    3.1831052 
       13.16   -1.6815213    1.6322352    3.4148607 
       13.17   -1.6620647    1.6394507    3.5178801 
       13.18   -1.6436434    1.6922334    3.4240859 
       13.19   -1.6236398    1.7444366    3.3281308 
        13.2   -1.6061326    1.7724767    3.3286185 
       13.21   -1.5895922     1.780431    3.4165556 
       13.22   -1.5727032    1.7676048    3.5945631 
       13.23   -1.5583609    1.7367498    3.8389261 
       13.24   -1.5444519    1.7079899    4.0601105 
       13.25   -1.5328305    1.6967408    4.1832672 
       13.26    -1.520897    1.6974674    4.2290769 
       13.27   -1.5093872    1.7135391    4.1828399 
       13.28   -1.4963345     1.748485     4.037345 
       13.29   -1.4843491    1.7897797    3.8457407 
        13.3   -1.4756775    1.8353695    3.6216673 
       13.31   -1.4693956    1.8834776    3.3830484 
       13.32    -1.468809    1.9112953    3.2239721 
       13.33   -1.4708238    1.9126213    3.1751902 
       13.34   -1.4784037    1.9148736     3.119216 
       13.35   -1.4932603    1.9226846    3.0331651 
       13.36   -1.5146439    1.9082093    3.0311873 
       13.37   -1.5436312    1.8467552    3.2094048 
       13.38   -1.5772958    1.7493775    3.5181072 
       13.39   -1.6158659    1.6681633    3.7336956 
        13.4   -1.6564393    1.6328579    3.7306571 
       13.41   -1.6993317    1.6298043    3.5620664 
       13.42    -1.749057    1.6417225    3.2969409 
       13.43   -1.8031347    1.6480315    3.0286254 
       13.44   -1.8648203    1.6408144    2.7915884 
       13.45   -1.9312541    1.6192504    2.6013525 
       13.46   -1.9982385    1.5920254    2.4396659 
       13.47   -2.0659385    1.5585975    2.3192638 
       13.48   -2.1253875    1.5194126    2.2618175 
       13.49   -2.1740975    1.4786137    2.2623316 
        13.5   -2.2113387    1.4358582    2.3265332 
       13.51   -2.2362819    1.3961739    2.4341318 
       13.52   -2.2498723    1.3651405    2.5558974 
       13.53   -2.2545545    1.3409429    2.6869811 
       13.54   -2.2491303    1.3258684    2.8111118 
       13.55   -2.2338878    1.3236353    2.9047827 
       13.56    -2.212218    1.3282009    2.9797378 
       13.57    -2.184797    1.3376858    3.0353247 
       13.58    -2.150591     1.366216    3.0109118 
       13.59    -2.114596    1.4233728    2.8592747 
        13.6   -2.0757247    1.5129223    2.5740545 
       13.61   -2.0351715    1.6118481    2.2582586 
       13.62   -1.9951746    1.6855436    2.0597795 
       13.63   -1.9607191    1.7206824    2.0330051 
       13.64   -1.9305544    1.7264244    2.1446117 
       13.65    -1.903436    1.7216246    2.3175952 
       13.66   -1.8770638    1.7087146    2.5386562 
       13.67   -1.8533162    1.6860472    2.8021755 
       13.68   -1.8278392    1.6686099    3.0441522 
       13.69   -1.8017934    1.6647978    3.2208259 
        13.7   -1.7733743    1.6678014    3.3581944 
       13.71    -1.745483    1.6673351    3.4919147 
       13.72   -1.7170124    1.6695888    3.5984419 
       13.73   -1.6878992    1.6907089    3.6147705 
       13.74   -1.6571403    1.7343153    3.5346997 
       13.75   -1.6262282    1.7820497    3.4416272 
       13.76   -1.5978523    1.8058173    3.4539875 
       13.77   -1.5718329     1.805987    3.5721134 
       13.78   -1.5493701    1.8006066    3.7168668 
       13.79   -1.5289324    1.7925487    3.8708371 
        13.8   -1.5109447    1.7922283    3.9836161 
       13.81   -1.4959267    1.7993032    4.0495845 
       13.82   -1.4848383    1.7747932     4.214687 
       13.83   -1.4737657    1.7360046    4.4022956 
       13.84   -1.4657212    1.7419005    4.3639208 
       13.85   -1.4570821    1.7737739    4.1845279 
       13.86   -1.4496405    1.7956996    4.0191618 
       13.87   -1.4428663    1.8033742    3.8952532 
       13.88   -1.4392107     1.811618    3.7532887 
       13.89   -1.4350808    1.8338584    3.5486768 
        13.9   -1.4338353     1.860891    3.3200453 
       13.91   -1.4352097    1.8755871    3.1447079 
       13.92   -1.4394563    1.8692013    3.0639596 
       13.93    -1.447524    1.8400708    3.0836975 
       13.94   -1.4583654    1.8106231    3.1138339 
       13.95   -1.4710873    1.8070526    3.0516698 
       13.96   -1.4849133    1.8001501    3.0136271 
       13.97   -1.5016538    1.7584476    3.1179544 
       13.98   -1.5201951     1.697426    3.2967805 
       13.99   -1.5381186    1.6462811    3.4270705 
          14   -1.5553335    1.6255929    3.4203135 
       14.01   -1.5714455    1.6453029    3.2417447 
       14.02    -1.581481    1.6740101    3.0316587 
       14.03   -1.5866338    1.6685584    2.9635651 
       14.04    -1.590332    1.6404239      2.98746 
       14.05   -1.5886219    1.6431708    2.9000938 
       14.06    -1.581814    1.6782396    2.6997121 
       14.07   -1.5691189    1.6965718    2.5820354 
       14.08   -1.5517934    1.6974642    2.5542681 
       14.09   -1.5273952     1.704004    2.5344585 
        14.1   -1.5003786    1.7147596     2.521091 
       14.11   -1.4689452    1.7258881    2.5293254 
       14.12   -1.4330288    1.7349401    2.5663229 
       14.13   -1.3975035    1.7259452    2.6796627 
       14.14   -1.3593858     1.705797    2.8390587 
       14.15   -1.3213525    1.7069436    2.9140012 
       14.16   -1.2831149     1.724311    2.9211992 
       14.17   -1.2465162    1.7380284     2.929986 
       14.18   -1.2116589    1.7555659    2.9130405 
       14.19   -1.1772617    1.7689449    2.9017225 
        14.2    -1.147982    1.7960322    2.8260559 
       14.21   -1.1202247    1.8476719     2.655529 
       14.22   -1.0975748    1.8977316    2.4891728 
[...]
   27270   -1.3558838    1.7570272    2.3601795   0.67465923 
   27280   -1.3330619    1.7749105     2.387991   0.67553337 
   27290   -1.3084377    1.7991299    2.3966832   0.67649586 
   27300   -1.2839598    1.8270085    2.3929054   0.67754375 
   27310   -1.2613224    1.8441894    2.4288334   0.67867576 
   27320   -1.2405677    1.8476703    2.5169893   0.67988455 
   27330   -1.2205532    1.8444806    2.6323416   0.68115443 
   27340   -1.2022402    1.8466041    2.7284368   0.68246578 
   27350   -1.1853262    1.8519004    2.8149084   0.68380162 
   27360   -1.1706709    1.8421818    2.9598467   0.68514589 
   27370   -1.1582544    1.8206098    3.1492394   0.68647416 
   27380   -1.1481672     1.813545    3.2774856   0.68775617 
   27390   -1.1401232    1.8267444    3.3164807   0.68897118 
   27400   -1.1337991     1.841547     3.332696   0.69011241 
   27410   -1.1326628    1.8479967    3.3575306   0.69117785 
   27420   -1.1360007     1.849284     3.379672   0.69216469 
   27430   -1.1453827    1.8372661    3.4282582      0.69307 
   27440   -1.1603674    1.7961662    3.5615137   0.69388579 
   27450   -1.1828721    1.7487346    3.6829106   0.69459241 
   27460   -1.2098294    1.7423759    3.6075353   0.69517393 
   27470   -1.2427365    1.7746352    3.3416443   0.69564488 
   27480   -1.2815088    1.8003283    3.0686094   0.69604908 
   27490   -1.3276739    1.8048522     2.857477   0.69643277 
   27500   -1.3776452    1.8023821     2.670533   0.69683248 
   27510   -1.4320137    1.7958897    2.5028883   0.69727967 
   27520    -1.487176    1.7756184    2.4029878   0.69780131 
   27530   -1.5397079    1.7307487     2.420947   0.69841251 
   27540   -1.5870512    1.6741416      2.50988   0.69910973 
   27550   -1.6264246    1.6447994    2.5193187   0.69987921 
   27560   -1.6603243     1.654966    2.3968946   0.70071946 
   27570   -1.6874211     1.671476    2.2775451   0.70164827 
   27580   -1.7081526    1.6626728    2.2916281   0.70268291 
   27590    -1.723462    1.6263843    2.4494999   0.70381964 
   27600   -1.7333027     1.583086     2.668274   0.70503197 
   27610    -1.737905     1.551177    2.8699454   0.70628327 
   27620   -1.7354381    1.5251523    3.0745087   0.70753878 
   27630   -1.7279398    1.4886947     3.338585   0.70876296 
   27640    -1.711342     1.452426    3.6182977   0.70991223 
   27650   -1.6889465    1.4512441    3.7616408   0.71094263 
   27660   -1.6614981    1.5039431     3.687719   0.71183279 
   27670   -1.6288532    1.5788312    3.5220298   0.71259494 
   27680   -1.5900529     1.639505    3.4138993   0.71325644 
   27690   -1.5495258    1.6849656    3.3646747   0.71383697 
   27700   -1.5084248    1.7269676    3.3279888   0.71434655 
   27710   -1.4684059    1.7666363    3.2991569   0.71479241 
   27720    -1.430272    1.7955423    3.3117935   0.71517972 
   27730   -1.3958124    1.8090064    3.3787661   0.71550692 
   27740    -1.367115    1.8177532    3.4476647   0.71576435 
   27750   -1.3436879    1.8301781    3.4794556   0.71594181 
   27760   -1.3255897    1.8447024    3.4778708   0.71603475 
   27770   -1.3112352     1.865529    3.4314023   0.71604467 
   27780   -1.3015926    1.8827155      3.38301   0.71597982 
   27790   -1.2971381    1.8776862    3.4094496   0.71584801 
   27800   -1.2980026    1.8647567    3.4573114   0.71564645 
   27810   -1.3028044    1.8568953    3.4786092   0.71536868 
   27820   -1.3128485    1.8288897    3.5675705   0.71501037 
   27830   -1.3235797    1.7939903    3.6745893   0.71455809 
   27840   -1.3355486    1.7874941    3.6539185   0.71399712 
   27850   -1.3475996    1.8126834    3.4911126   0.71333239 
   27860   -1.3637804    1.8335819    3.3262471   0.71259053 
   27870   -1.3805627    1.8101807     3.329257   0.71179771 
   27880   -1.3981583     1.744219    3.4946886   0.71095394 
   27890   -1.4161107    1.6870849    3.6151191   0.71003484 
   27900   -1.4326148    1.6958204    3.4665646   0.70902443 
   27910   -1.4483665    1.7497709    3.1349787   0.70794746 
   27920   -1.4633928    1.7948777    2.8430705   0.70685727 
   27930   -1.4782796    1.8203898    2.6415313   0.70580257 
   27940   -1.4959698    1.8343608    2.4983502   0.70481736 
   27950   -1.5152701    1.8353149    2.4226828   0.70392469 
   27960   -1.5353447    1.8110624    2.4654437   0.70313542 
   27970    -1.556895    1.7524645    2.6600774   0.70244056 
   27980   -1.5798473     1.671657    2.9507001   0.70180695 
   27990   -1.6018979    1.6016286    3.1980549   0.70118664 
   28000   -1.6193829    1.5645752    3.3093648   0.70053897 
   28010   -1.6323333    1.5498203    3.3231565   0.69984475 
   28020   -1.6414485    1.5354599    3.3280748   0.69910081 
   28030   -1.6433592    1.5094041    3.3794217   0.69830582 
   28040   -1.6397679    1.4916626    3.3985613   0.69745269 
   28050   -1.6279755    1.5094931    3.2868759   0.69654018 
   28060   -1.6018626    1.5604049    3.0723729   0.69558716 
   28070   -1.5574327    1.6313166    2.8298479   0.69462921 
   28080   -1.4913584    1.7046277    2.6501408   0.69370589 
   28090   -1.4038472    1.7727043    2.5690499   0.69284649 
   28100   -1.3064921    1.8347054    2.5628274   0.69206439 
   28110   -1.2140573    1.8903865    2.5904859   0.69136041 
   28120   -1.1349384    1.9363298    2.6352441   0.69072926 
   28130   -1.0743898    1.9697659    2.6935154   0.69016264 
   28140   -1.0318802    1.9921658    2.7632512   0.68965002 
   28150   -1.0038841    1.9856196    2.9190571   0.68917788 
   28160  -0.99098159    1.9363403    3.2057174   0.68871876 
   28170  -0.98498734    1.8749782    3.5054802   0.68822558 
   28180  -0.98334244    1.8514212    3.6220864   0.68765076 
   28190  -0.98842496    1.8720757    3.5270433   0.68697556 
   28200  -0.99533259    1.8973822    3.3838288   0.68621419 
   28210   -1.0076744    1.9058456     3.276431   0.68539023 
   28220   -1.0250522    1.9113178    3.1614386   0.68452308 
   28230   -1.0477393    1.9022882    3.0893554   0.68363161 
   28240   -1.0750961    1.8665775    3.1114952   0.68272719 
   28250   -1.1037212     1.832539    3.1266151   0.68180781 
   28260   -1.1373145    1.8081233    3.0948803   0.68087142 
   28270   -1.1718053    1.8050406    2.9776273   0.67992406 
   28280   -1.2086777    1.8164469    2.8040916   0.67898527 
   28290    -1.246926    1.8068736    2.7143922    0.6780821 
   28300   -1.2862698    1.7703447    2.7333918   0.67722917 
   28310   -1.3257138    1.7283302    2.7777372   0.67642416 
   28320   -1.3620413    1.6978314    2.7811762      0.67566 
   28330   -1.3961287    1.6912463    2.6937992   0.67493654 
   28340   -1.4254637    1.7094493    2.5207829   0.67426832 
   28350   -1.4539643    1.7182572    2.3911488   0.67368242 
   28360   -1.4811359     1.694617     2.395928   0.67319888 
   28370   -1.5053382    1.6548518    2.4753309   0.67281726 
   28380   -1.5247914    1.6188875     2.550912    0.6725247 
   28390   -1.5392809    1.5956322    2.5840877   0.67230858 
   28400   -1.5495886    1.5904377    2.5539595   0.67216332 
   28410   -1.5551144    1.6035637     2.465284   0.67209372 
   28420   -1.5560165    1.6263807    2.3565922   0.67211396 
   28430   -1.5547807     1.645097    2.2812679   0.67224151 
   28440   -1.5502355    1.6508593    2.2750391   0.67248836 
   28450   -1.5398699    1.6507996    2.3123711   0.67285575 
   28460   -1.5267305    1.6626297     2.320557   0.67333849 
   28470   -1.5092601    1.6859801    2.3025597   0.67393508 
   28480   -1.4903355    1.6964982    2.3448762   0.67464714 
   28490   -1.4655659    1.6945655    2.4495958   0.67546739 
   28500   -1.4363768    1.7188576    2.4673217   0.67638056 
   28510   -1.4014967    1.7740514    2.3816373   0.67738401 
   28520   -1.3607269     1.820473    2.3447344   0.67849007 
   28530   -1.3171179    1.8442962    2.4116185   0.67970442 
   28540   -1.2721378    1.8516419     2.562222   0.68101613 
   28550   -1.2237558    1.8436803    2.7956194   0.68239974 
   28560   -1.1723245    1.8213423    3.1038708   0.68381568 
   28570   -1.1172594    1.8004839    3.4190499   0.68521244 
   28580   -1.0581955     1.796939    3.6679846   0.68653733 
   28590  -0.99880543    1.8223652    3.7869889   0.68774873 
   28600  -0.94065175    1.8932787    3.7044331   0.68882731 
   28610  -0.88289054    1.9898408    3.5001457   0.68978561 
   28620  -0.83049417    2.0695027    3.3404807   0.69065586 
   28630  -0.78641326     2.094279    3.3749573   0.69146287 
   28640  -0.75508703     2.074577    3.5572182   0.69220141 
   28650  -0.73730485    2.0730425     3.640737   0.69284436 
   28660  -0.72977672    2.1147874    3.5295725   0.69337904 
   28670  -0.73356119    2.1413335    3.4480629   0.69382076 
   28680  -0.75807597     2.098096    3.5973865   0.69418062 
   28690  -0.79352447    1.9939825    3.9544757   0.69443354 
   28700  -0.83858054     1.884613    4.2950281   0.69452235 
   28710  -0.88963397    1.8045082    4.4730414   0.69439144 
   28720  -0.94511067    1.7626246    4.4427209    0.6940116 
   28730   -1.0042303    1.7711692    4.1591149   0.69338913 
   28740   -1.0622307    1.8219285    3.6788893   0.69257215 
   28750   -1.1211206     1.849997    3.2732854    0.6916385 
   28760   -1.1789026    1.8316335    3.0568913   0.69065565 
   28770   -1.2328326    1.8279669    2.8122263   0.68966413 
   28780   -1.2799199    1.8466598    2.5176555   0.68870568 
   28790   -1.3203954    1.8414544    2.3527052   0.68782733 
   28800   -1.3543974    1.8062649    2.3423767   0.68705645 
   28810    -1.381735    1.7692034    2.3753907   0.68639621 
   28820   -1.4039118    1.7455998    2.3856723   0.68584187 
   28830   -1.4211215    1.7136402    2.4520603   0.68539012 
   28840   -1.4323563    1.6755958    2.5647473   0.68502946 
   28850   -1.4399323    1.6795115    2.5376991   0.68474363 
   28860   -1.4446427    1.7205246    2.3869106   0.68453694 
   28870   -1.4483092    1.7442876    2.3150949   0.68443158 
   28880   -1.4489008    1.7467856    2.3439121    0.6844396 
   28890   -1.4500084    1.7389037    2.4285099   0.68455685 
   28900   -1.4507859    1.7194584    2.5718767   0.68476891 
   28910   -1.4505054    1.6911538    2.7596099   0.68505173 
   28920   -1.4477919    1.6666237    2.9389999   0.68537426 
   28930   -1.4434092    1.6616716     3.043395   0.68570713 
   28940   -1.4340476    1.6765586    3.0732614   0.68603251 
   28950   -1.4235264    1.6978358    3.0747991   0.68634472 
   28960   -1.4117772    1.7138444    3.0943036   0.68664276 
   28970   -1.3979916    1.7204648    3.1484382   0.68692297 
   28980   -1.3831599    1.7338797    3.1721379   0.68717719 
   28990   -1.3671872    1.7695182    3.1040619   0.68740226 
   29000   -1.3535509    1.8172033    2.9777797    0.6876092 
   29010   -1.3399874    1.8520803    2.8931943   0.68781786 
   29020    -1.327797    1.8555321    2.9197125   0.68804172 
   29030   -1.3204682    1.8287502    3.0429821   0.68827654 
   29040   -1.3126543    1.8011351    3.1506305    0.6885029 
   29050   -1.3056021    1.8041933    3.1178985   0.68870448 
   29060   -1.3014518    1.8286224    2.9815761   0.68888626 
   29070   -1.3002083    1.8489141     2.848434   0.68906975 
   29080    -1.301913    1.8643837    2.7313023    0.6892775 
   29090    -1.307503     1.874839    2.6360497   0.68952948 
   29100   -1.3178859     1.867893    2.6105137   0.68984128 
   29110   -1.3339892    1.8440926    2.6500115   0.69021748 
   29120   -1.3522768    1.8209273    2.6892326   0.69065248 
   29130   -1.3745183    1.8106605    2.6767433   0.69114063 
   29140    -1.401963    1.7953903    2.6790822   0.69168332 
   29150   -1.4323493    1.7542806    2.7792901   0.69227919 
   29160   -1.4668015    1.6917601    2.9555443   0.69291187 
   29170   -1.4985398    1.6361332    3.1005817   0.69355304 
   29180   -1.5307631    1.6188672    3.0829677   0.69418013 
   29190   -1.5615437    1.6313576    2.9393539    0.6947955 
   29200   -1.5907847    1.6415674     2.802597   0.69542163 
   29210   -1.6178644    1.6328192    2.7488801   0.69608079 
   29220   -1.6418342    1.6071226    2.7769226   0.69678231 
   29230   -1.6629559    1.5857153    2.8038679   0.69752286 
   29240   -1.6798404    1.5979616    2.7176548   0.69829974 
   29250   -1.6941811     1.637392    2.5446593   0.69912748 
   29260   -1.7054882    1.6645347    2.4468229   0.70003333 
   29270   -1.7137326    1.6543041    2.5291881   0.70103284 
   29280   -1.7205332    1.6089498    2.7808968   0.70211271 
   29290   -1.7208651    1.5494431    3.1184619   0.70323172 
   29300   -1.7156956    1.4973428    3.4407752     0.704334 
   29310   -1.7046371    1.4662672    3.6776047   0.70536539 
   29320   -1.6872645    1.4722244    3.7548763   0.70628622 
   29330    -1.661027    1.5321397    3.6110445   0.70708376 
   29340   -1.6256845    1.6244075    3.3446253   0.70778042 
   29350   -1.5810859    1.7023489    3.1554675   0.70841801 
   29360   -1.5269854    1.7542806    3.1002508   0.70902772 
   29370   -1.4650829    1.7864454    3.1522056   0.70961929 
   29380   -1.4019604    1.7981508    3.2952944   0.71018398 
   29390   -1.3363681    1.8122421     3.428353   0.71069871 
   29400   -1.2735934    1.8617624    3.4037854   0.71114292 
   29410   -1.2146854    1.9446275     3.225058   0.71152031 
   29420    -1.163901    2.0302517    3.0120129   0.71185933 
   29430   -1.1255438    2.0760749    2.9337033   0.71219354 
   29440     -1.10114    2.0699734    3.0396094   0.71253541 
   29450   -1.0899391    2.0434945    3.2048493   0.71286881 
   29460   -1.0889689    2.0298177    3.2975243   0.71316771 
   29470   -1.0991192    2.0279304    3.3163822   0.71341629 
   29480    -1.116798    2.0134903    3.3625316   0.71360947 
   29490   -1.1384408    1.9676014    3.5154789   0.71373796 
   29500   -1.1654681    1.9043311    3.7139973   0.71377649 
   29510   -1.1962365    1.8599347    3.8108493   0.71369323 
   29520   -1.2277183    1.8536519     3.730756   0.71347239 
   29530   -1.2573209    1.8605034    3.5786503   0.71312545 
   29540   -1.2891805    1.8480743    3.4834368   0.71267608 
   29550   -1.3236249    1.8239645    3.4220815   0.71214084 
   29560   -1.3544163       1.8047    3.3443037   0.71153059 
   29570   -1.3822797    1.7781502    3.3005101   0.71085755 
   29580   -1.4075963    1.7383652      3.31311   0.71012867 
   29590   -1.4315404    1.7147668    3.2607637   0.70934364 
   29600   -1.4503438    1.7230087    3.0838331    0.7085121 
   29610   -1.4691499    1.7428909    2.8559332   0.70766297 
   29620   -1.4840562    1.7593296    2.6501607   0.70683397 
   29630   -1.4967889    1.7637588    2.5065479    0.7060596 
   29640   -1.5088956    1.7548729     2.434393   0.70536424 
   29650   -1.5207974    1.7335035    2.4317409   0.70476042 
   29660   -1.5301758    1.6975136    2.5040856   0.70424852 
   29670   -1.5370037    1.6774462    2.5224375   0.70381838 
   29680   -1.5421649    1.7141539    2.3208211   0.70346973 
   29690   -1.5477565    1.7870872    1.9787594   0.70323594 
   29700   -1.5519371    1.8452347    1.7080284    0.7031724 
   29710   -1.5579218    1.8642157    1.6110036    0.7033245 
   29720   -1.5671353    1.8474118    1.6787357    0.7037101 
   29730   -1.5781209    1.8036971    1.8778734   0.70431952 
   29740   -1.5879515    1.7374837    2.1884623   0.70512045 
   29750   -1.5957227     1.668166    2.5256079   0.70606257 
   29760   -1.6002441    1.6264652    2.7599314   0.70709135 
   29770   -1.6000532    1.6270283    2.8291124   0.70816832 
   29780   -1.5971794    1.6521537    2.8012368   0.70928107 
   29790   -1.5925508    1.6683062    2.8150055   0.71043254 
   29800   -1.5843458    1.6532985    2.9676865    0.7116192 
   29810    -1.574064    1.6154477     3.222682   0.71281576 
   29820   -1.5588674    1.5930341     3.423397   0.71398098 
   29830   -1.5379826    1.6197432    3.4296458   0.71508245 
   29840   -1.5108517    1.6806691    3.3017307   0.71611766 
   29850   -1.4758617    1.7349772    3.2108181   0.71710523 
   29860   -1.4369617    1.7710289     3.203031   0.71805969 
   29870   -1.3914386    1.8078812    3.2062891   0.71898324 
   29880   -1.3400339    1.8703311    3.1212903   0.71987655 
   29890   -1.2813248    1.9607073    2.9491594   0.72075384 
   29900   -1.2199276    2.0405074    2.8480285   0.72164198 
   29910    -1.158813    2.0743421    2.9606194   0.72255616 
   29920   -1.1056138    2.0619727    3.2723354   0.72347757 
   29930   -1.0593903    2.0230083    3.6922547   0.72435436 
   29940   -1.0193453    1.9862128    4.0877263   0.72511644 
   29950  -0.98833172    1.9767821    4.3358224    0.7256976 
   29960  -0.96502917    1.9895614    4.4449467   0.72605414 
   29970   -0.9491401    2.0142675    4.4513917   0.72616566 
   29980  -0.94434132    2.0316688    4.4269099   0.72602879 
   29990  -0.95061367    2.0209138    4.4550181   0.72564535 
   30000  -0.96874091     1.978322    4.5453108   0.72500937 
Loop time of 5.04694 on 8 procs for 30000 steps with 125 atoms

Performance: 513578.443 tau/day, 5944.195 timesteps/s
98.5% CPU use with 1 MPI tasks x 8 OpenMP threads

MPI task timing breakdown:
Section |  min time  |  avg time  |  max time  |%varavg| %total
---------------------------------------------------------------
Pair    | 1.8549     | 1.8549     | 1.8549     |   0.0 | 36.75
Neigh   | 0.0054703  | 0.0054703  | 0.0054703  |   0.0 |  0.11
Comm    | 0.15154    | 0.15154    | 0.15154    |   0.0 |  3.00
Output  | 0.055997   | 0.055997   | 0.055997   |   0.0 |  1.11
Modify  | 2.9622     | 2.9622     | 2.9622     |   0.0 | 58.69
Other   |            | 0.01684    |            |       |  0.33

Nlocal:        125.000 ave         125 max         125 min
Histogram: 1 0 0 0 0 0 0 0 0 0
Nghost:        2082.00 ave        2082 max        2082 min
Histogram: 1 0 0 0 0 0 0 0 0 0
Neighs:        16778.0 ave       16778 max       16778 min
Histogram: 1 0 0 0 0 0 0 0 0 0

Total # of neighbors = 16778
Ave neighs/atom = 134.22400
Neighbor list builds = 107
Dangerous builds = 0

variable avedens equal f_aves[1]
variable avetemp equal f_aves[2]
variable avepress equal f_aves[3]
variable errdens equal sqrt(f_aves[4]-f_aves[1]*f_aves[1])
variable errtemp equal sqrt(f_aves[5]-f_aves[2]*f_aves[2])
variable errpress equal sqrt(f_aves[6]-f_aves[3]*f_aves[3])

print "Averages"
Averages
print "--------"
--------
print "Density: ${avedens}"
Density: 0.709135779585752
print "Stderr: ${errdens}"
Stderr: 0.0206767752257212
print "Temperature: ${avetemp}"
Temperature: 1.75598211390551
print "Stderr: ${errtemp}"
Stderr: 0.134618061259405
print "Pressure: ${avepress}"
Pressure: 3.00306073700373
print "Stderr: ${errpress}"
Stderr: 0.606226141536241
clear # Clear any previous runs
  using 8 OpenMP thread(s) per MPI task

package omp 8 # For parallelisation.
using multi-threaded neighbor list subroutines


### DEFINE SIMULATION BOX GEOMETRY ###
lattice sc 0.8
Lattice spacing in x,y,z = 1.0772173 1.0772173 1.0772173
region box block 0 5 0 5 0 5
create_box 1 box
Created orthogonal box = (0.0000000 0.0000000 0.0000000) to (5.3860867 5.3860867 5.3860867)
  1 by 1 by 1 MPI processor grid
create_atoms 1 box
Created 125 atoms
  create_atoms CPU = 0.000 seconds

### DEFINE PHYSICAL PROPERTIES OF ATOMS ###
mass 1 1.0
pair_style lj/cut/omp 2.5
pair_coeff 1 1 1.0 1.0
neighbor 2.0 bin

### SPECIFY THE REQUIRED THERMODYNAMIC STATE ###
variable T equal 2
variable p equal 2
variable timestep equal 0.001

log ${T}_${p}_NpT.log # specify the log file name. Can overwrite if desired
log 2_${p}_NpT.log 
log 2_2_NpT.log 
