
### SPECIFY THE NUMBER OF PRODUCTION STEPS ###
variable Nprod equal 30000

### ASSIGN ATOMIC VELOCITIES ###
velocity all create ${T} 12345 dist gaussian rot yes mom yes
velocity all create 2.25 12345 dist gaussian rot yes mom yes

### SPECIFY ENSEMBLE ###
timestep ${timestep}
timestep 0.001
fix nve all nve

### THERMODYNAMIC OUTPUT CONTROL ###
thermo_style custom time etotal temp press
thermo 10

### RECORD TRAJECTORY ###
dump traj all custom 1000 traj.dump id x y z

### SPECIFY TIMESTEP ###

### RUN SIMULATION TO MELT CRYSTAL ###
run 10000
Last active /omp style is pair_style lj/cut/omp
Neighbor list info ...
  update every 1 steps, delay 10 steps, check yes
  max neighbors/atom: 2000, page size: 100000
  master list distance cutoff = 4.5
  ghost atom cutoff = 4.5
  binsize = 2.25, bins = 3 3 3
  1 neighbor lists, perpetual/occasional/extra = 1 0 0
  (1) pair lj/cut/omp, perpetual
      attributes: half, newton on, omp
      pair build: half/bin/atomonly/newton/omp
      stencil: half/bin/3d/newton
      bin: standard
Per MPI rank memory allocation (min/avg/max) = 10.63 | 10.63 | 10.63 Mbytes
Time TotEng Temp Press 
           0   -1.9167711         2.25    1.4903632 
        0.01   -1.9167862    2.1972612    1.7833958 
        0.02   -1.9140669     2.031872    2.6881538 
        0.03   -1.9038486    1.7532389    4.1789485 
        0.04   -1.8946977    1.4230332    5.9083526 
        0.05   -1.8943436    1.1929715    7.1304825 
        0.06   -1.8929868     1.155876    7.4138292 
        0.07   -1.8921696    1.2428431    7.0609297 
        0.08    -1.891814    1.3504041    6.5608955 
        0.09   -1.8902323    1.4317121    6.1587214 
         0.1   -1.8882598    1.4920423     5.851489 
        0.11   -1.8872064    1.5459547    5.5794632 
        0.12   -1.8877241    1.6022791    5.3008183 
        0.13    -1.887204    1.6646605    4.9993703 
        0.14   -1.8852497    1.7293022    4.6885387 
        0.15    -1.884331     1.790423    4.3865709 
        0.16   -1.8838012    1.8502249    4.0825325 
        0.17   -1.8839436    1.9149729    3.7500379 
        0.18   -1.8838396    1.9734165    3.4465808 
        0.19   -1.8828013    2.0023085    3.2843736 
         0.2   -1.8833115    1.9963832      3.28942 
        0.21   -1.8825208    1.9700932    3.4049755 
        0.22   -1.8826556    1.9334745    3.5816476 
        0.23   -1.8833089    1.8902068    3.8008657 
        0.24   -1.8842172    1.8462964    4.0328547 
        0.25   -1.8835632    1.8100753    4.2382068 
        0.26   -1.8833115    1.7839054    4.3949787 
        0.27   -1.8847149    1.7660886    4.4987208 
        0.28   -1.8847153    1.7835362    4.4333025 
        0.29   -1.8843774    1.8328781    4.2189345 
         0.3   -1.8847932    1.8633467    4.0898535 
        0.31   -1.8871249    1.8477619    4.1736327 
        0.32   -1.8873221    1.8077493    4.3802046 
        0.33   -1.8847341     1.799389    4.4622829 
        0.34   -1.8848042    1.8082379     4.477547 
        0.35   -1.8843862    1.7753344    4.6899103 
        0.36   -1.8843051    1.7272553    4.9695085 
        0.37   -1.8835353    1.7377094    4.9773696 
        0.38   -1.8826909    1.7981971    4.7450774 
        0.39   -1.8821779    1.8439544    4.5690879 
         0.4   -1.8816348    1.8542886    4.5551607 
        0.41   -1.8826751    1.8428831    4.6432378 
        0.42   -1.8839777    1.8166798    4.7983409 
        0.43    -1.882396    1.7830131    4.9847434 
        0.44   -1.8825192    1.7570875    5.1204181 
        0.45   -1.8840859     1.746747     5.165132 
        0.46   -1.8863053    1.7547755    5.1065523 
        0.47   -1.8867031    1.7816151    4.9521992 
        0.48   -1.8872619    1.8141151    4.7687181 
        0.49   -1.8858548    1.8181287    4.7241161 
         0.5   -1.8859421    1.7739313    4.9056186 
        0.51   -1.8869168    1.7328282    5.0838506 
        0.52   -1.8873861    1.7540443    4.9962036 
        0.53    -1.886775    1.7804395    4.8926777 
        0.54   -1.8872666    1.7705269     4.954812 
        0.55   -1.8864858    1.7441349    5.0992645 
        0.56   -1.8867418    1.7013633    5.3165717 
        0.57   -1.8880068    1.6491905    5.5687448 
        0.58   -1.8875909    1.6254515     5.685044 
        0.59   -1.8876264    1.6521363    5.5619173 
         0.6   -1.8875404    1.6957885     5.351326 
        0.61   -1.8869965    1.7178188    5.2286939 
        0.62   -1.8871053    1.7328503    5.1306386 
        0.63   -1.8876299    1.7621822    4.9653005 
        0.64   -1.8859615    1.8005746     4.766478 
        0.65   -1.8841593    1.8194377    4.6648028 
        0.66   -1.8831024    1.7941233    4.7675269 
        0.67   -1.8841005    1.7411692    4.9895691 
        0.68   -1.8840541    1.7149392    5.0844812 
        0.69   -1.8846617    1.7486159    4.9049983 
         0.7   -1.8842798    1.7710792    4.7769988 
        0.71   -1.8834592    1.7588386    4.8156215 
        0.72   -1.8817641    1.7420517    4.8898501 
        0.73   -1.8808542    1.7223838    4.9813299 
        0.74   -1.8803121     1.697698    5.0916621 
        0.75    -1.879136    1.6843944    5.1449076 
        0.76   -1.8803067    1.6867408    5.1161009 
        0.77   -1.8830627    1.7062547     5.005047 
        0.78   -1.8826903    1.7300038    4.8816029 
        0.79   -1.8831987    1.7420841    4.8100767 
         0.8   -1.8827983    1.7509667    4.7543738 
        0.81   -1.8829024    1.7668887     4.665558 
        0.82   -1.8820114    1.8072473    4.4747317 
        0.83   -1.8811374    1.8485855    4.2907326 
        0.84   -1.8820391    1.8514323    4.2882732 
        0.85   -1.8823862     1.823838    4.4316344 
        0.86   -1.8819859    1.8049225     4.539547 
        0.87   -1.8805863    1.8041499    4.5650497 
        0.88   -1.8816571    1.7941357    4.6228728 
        0.89   -1.8808217    1.7629916    4.7713975 
         0.9   -1.8810857    1.7644787    4.7726364 
        0.91   -1.8798561    1.7940271    4.6578469 
        0.92   -1.8791714    1.7871991    4.7122047 
        0.93   -1.8792842     1.759347    4.8692075 
        0.94   -1.8780925    1.7335465    5.0210568 
        0.95   -1.8791383    1.7277637    5.0740542 
        0.96   -1.8775676    1.7429914    5.0268148 
        0.97   -1.8765417    1.7736776    4.9019418 
        0.98   -1.8752497    1.7978809    4.8048927 
        0.99   -1.8777176    1.7967238    4.8187924 
           1   -1.8778416    1.7767886    4.9271839 
        1.01    -1.878901     1.745358    5.0910997 
        1.02    -1.880195    1.6984566     5.323078 
        1.03   -1.8822314    1.6610762    5.5043432 
        1.04   -1.8815052    1.6764785    5.4501463 
        1.05   -1.8819426    1.7000085    5.3556932 
        1.06   -1.8798069    1.6882965    5.4229623 
        1.07   -1.8786115    1.6762134     5.492396 
        1.08   -1.8786334    1.6836323    5.4699864 
        1.09   -1.8770753    1.6902183     5.444362 
         1.1   -1.8782223      1.68735    5.4426629 
        1.11   -1.8793901    1.6935222    5.3859869 
        1.12   -1.8800538    1.7117633    5.2637673 
        1.13   -1.8814777    1.7323522    5.1224038 
        1.14   -1.8809574    1.7596839    4.9561744 
        1.15   -1.8795308    1.7862655    4.8063272 
        1.16    -1.879418    1.7962155    4.7486269 
        1.17   -1.8798068    1.7745936    4.8539432 
        1.18   -1.8786085    1.7261296    5.0999311 
        1.19   -1.8802893    1.6761226    5.3561186 
         1.2   -1.8800235    1.6457961    5.5223636 
        1.21   -1.8804351    1.6436568    5.5476613 
        1.22   -1.8812458    1.6536669    5.5024504 
        1.23   -1.8826607    1.6548459    5.4854089 
        1.24   -1.8839854    1.6601131     5.450075 
        1.25   -1.8820329    1.6597291    5.4456111 
        1.26   -1.8819934    1.6597824    5.4338606 
        1.27   -1.8832188    1.6902047     5.284901 
        1.28    -1.883349    1.7114888    5.1760177 
        1.29   -1.8830594    1.7139611    5.1509261 
         1.3   -1.8821509    1.7186967     5.117123 
        1.31   -1.8821371     1.725935    5.0651998 
        1.32   -1.8814661    1.7486036    4.9352199 
        1.33   -1.8817661      1.79948    4.6717622 
        1.34   -1.8811626    1.8376681     4.468049 
        1.35   -1.8813832    1.8188237    4.5232212 
        1.36   -1.8823573    1.7764333    4.6865145 
        1.37   -1.8817075    1.7710987    4.6867103 
        1.38   -1.8830487    1.8014425    4.5216972 
        1.39   -1.8822672    1.8339413    4.3534681 
         1.4   -1.8834437    1.8579007    4.2352907 
        1.41   -1.8852862     1.867989    4.2032241 
        1.42   -1.8855606    1.8509969    4.3236106 
        1.43   -1.8838456    1.8036013    4.6066016 
        1.44   -1.8839743    1.7498529    4.9267766 
        1.45   -1.8821396     1.703817    5.2078497 
        1.46   -1.8828967    1.6824064    5.3495375 
        1.47   -1.8839711     1.705378    5.2614729 
        1.48   -1.8839715    1.7487143    5.0558773 
        1.49   -1.8842405    1.7953444    4.8209665 
         1.5   -1.8832023    1.8259659     4.658856 
        1.51   -1.8825426    1.8288356    4.6266094 
        1.52    -1.879131    1.8078531    4.7117923 
        1.53   -1.8789744    1.7821135    4.8143485 
        1.54   -1.8783074     1.778309    4.8154403 
        1.55    -1.879115    1.8087424    4.6565198 
        1.56   -1.8802078     1.848967    4.4554551 
        1.57   -1.8786408    1.8548136    4.4210253 
        1.58   -1.8789745     1.829846    4.5333445 
        1.59    -1.880422    1.8227314    4.5772268 
         1.6   -1.8791367    1.8298506    4.5688924 
        1.61   -1.8792808    1.8293104     4.597281 
        1.62   -1.8800729    1.8062264    4.7292006 
        1.63   -1.8793945    1.7567129    4.9801356 
        1.64   -1.8781978    1.7096734    5.2131802 
        1.65   -1.8790014    1.6881534    5.3158155 
        1.66   -1.8792661     1.679717    5.3426858 
        1.67   -1.8784451     1.684336    5.2936071 
        1.68   -1.8792331    1.7309788    5.0399551 
        1.69   -1.8787664    1.8090183    4.6447392 
         1.7   -1.8781279    1.8616641    4.3754722 
        1.71   -1.8791523    1.8693942    4.3323981 
        1.72   -1.8791433    1.8480118    4.4551319 
        1.73   -1.8805594    1.8109263    4.6733608 
        1.74   -1.8793693    1.7838199    4.8701075 
        1.75   -1.8799332    1.7796455    4.9738784 
        1.76   -1.8785051    1.7678298    5.1198279 
        1.77   -1.8777186    1.7363166    5.3548103 
        1.78   -1.8777122    1.6890389    5.6566495 
        1.79   -1.8761318    1.6342478    5.9831338 
         1.8   -1.8764908    1.5904054    6.2331221 
        1.81   -1.8767587    1.5882408     6.262521 
        1.82    -1.877303    1.6232197    6.0881746 
        1.83   -1.8803095    1.6697939    5.8309613 
        1.84    -1.881892    1.7125015    5.5875337 
        1.85   -1.8825457    1.7322677    5.4605091 
        1.86   -1.8831874    1.7282909    5.4625535 
        1.87   -1.8821618    1.7117529    5.5479547 
        1.88   -1.8816401    1.6753438    5.7367161 
        1.89   -1.8822578    1.6272303    5.9768614 
         1.9   -1.8818721    1.6012208    6.1076088 
        1.91    -1.881891    1.5977789    6.1139007 
        1.92   -1.8826597    1.6024033    6.0555846 
        1.93    -1.881329    1.6271358    5.8858258 
        1.94   -1.8827763    1.6908521    5.5200113 
        1.95   -1.8803524    1.7759556    5.0621453 
        1.96   -1.8788366    1.8257046    4.7783791 
        1.97   -1.8801467    1.7915816    4.8963695 
        1.98   -1.8793958    1.6832038    5.3751905 
        1.99   -1.8808884    1.6007236    5.7432584 
           2   -1.8801516     1.614921    5.6731808 
        2.01    -1.879932    1.6878733    5.3189878 
        2.02   -1.8801003    1.7677702    4.9188441 
        2.03   -1.8811595    1.8151042    4.6615652 
        2.04   -1.8822006    1.8125968    4.6371262 
        2.05    -1.881919    1.7641101    4.8341905 
        2.06    -1.883317    1.6940186    5.1339072 
        2.07   -1.8832811    1.6482071    5.3272338 
        2.08   -1.8832919    1.6600889    5.2549573 
        2.09    -1.883964    1.7176011    4.9671447 
         2.1   -1.8828179    1.7934044    4.5972812 
        2.11   -1.8829702    1.8534937    4.3043361 
        2.12   -1.8821919    1.8721989    4.2163377 
        2.13   -1.8820431    1.8441705    4.3546315 
        2.14   -1.8839727    1.7948388     4.593537 
        2.15   -1.8834306    1.7623647    4.7567925 
        2.16   -1.8825258    1.7679731    4.7397979 
        2.17   -1.8836092    1.8009463    4.5923578 
        2.18   -1.8841421    1.8216001     4.503493 
        2.19   -1.8841207    1.8145774    4.5462875 
         2.2   -1.8821553    1.7953356    4.6536722 
        2.21   -1.8825493    1.7734389    4.7714133 
        2.22   -1.8834545    1.7505805    4.8874955 
        2.23   -1.8818576    1.7418081    4.9328409 
        2.24   -1.8825321    1.7700484    4.7987558 
        2.25   -1.8819208    1.8120805    4.6037448 
        2.26   -1.8820656    1.8239757    4.5528791 
        2.27   -1.8819192    1.7893043    4.7259534 
        2.28   -1.8827777    1.7300656    5.0148537 
        2.29    -1.881083    1.6998024    5.1768495 
         2.3   -1.8803339    1.7027547    5.1791183 
        2.31   -1.8807069    1.7115928    5.1394613 
        2.32   -1.8821401    1.7301624    5.0421021 
        2.33   -1.8825276    1.7571726    4.8963118 
        2.34   -1.8822584    1.7891739    4.7217315 
        2.35   -1.8817398    1.8255135    4.5312455 
        2.36   -1.8803417     1.855403    4.3864541 
        2.37   -1.8803479    1.8472718    4.4299303 
        2.38    -1.881979    1.8034718    4.6473504 
        2.39   -1.8827669    1.7823203     4.777106 
         2.4   -1.8822807    1.7862619    4.7991036 
        2.41   -1.8834708    1.7799435    4.8599399 
        2.42   -1.8831976    1.7485244    5.0264048 
        2.43   -1.8817192    1.7069843    5.2241102 
        2.44   -1.8797475    1.6935733    5.2756664 
        2.45   -1.8801578    1.7229648    5.1105493 
        2.46   -1.8816191    1.7764139     4.821498 
        2.47   -1.8808395    1.8248393    4.5523666 
        2.48    -1.881734    1.8606599    4.3394201 
        2.49   -1.8800591    1.8919702    4.1639215 
         2.5   -1.8804803    1.8982619    4.1187567 
        2.51   -1.8796907    1.8516017    4.3355285 
        2.52   -1.8805388    1.7667288    4.7342764 
        2.53   -1.8819199    1.7125339     4.993514 
        2.54   -1.8826216    1.7430788    4.8649358 
        2.55   -1.8828221    1.8177693    4.5301269 
        2.56   -1.8824285    1.8677313    4.3044995 
        2.57   -1.8829195    1.8839098    4.2332824 
        2.58   -1.8826307     1.894633    4.1904824 
        2.59   -1.8814684    1.9230987    4.0686757 
         2.6   -1.8820343    1.9561283    3.9254032 
        2.61   -1.8824371     1.953399    3.9499401 
        2.62   -1.8820218     1.902226    4.2026177 
        2.63   -1.8809367    1.8284783    4.5592743 
        2.64   -1.8807695    1.7791792    4.7948896 
        2.65   -1.8797497    1.7869349    4.7625618 
        2.66    -1.879009    1.8293899    4.5676569 
        2.67   -1.8795494    1.8615795    4.4257877 
        2.68   -1.8777252    1.8591661    4.4669479 
        2.69   -1.8775754    1.8198546    4.6991237 
         2.7   -1.8781918    1.7676186    5.0102667 
        2.71   -1.8782072    1.7412908    5.2217633 
        2.72   -1.8790399    1.7345589     5.351131 
        2.73   -1.8786457    1.7115181    5.5528105 
        2.74   -1.8791494    1.6786096    5.7882587 
        2.75   -1.8800723    1.6599079    5.9446049 
        2.76   -1.8795607    1.6559061    6.0180217 
        2.77   -1.8799445    1.6595812    6.0349204 
        2.78   -1.8805929    1.6735343    5.9872491 
        2.79   -1.8806011    1.6957391    5.8890344 
         2.8   -1.8806191    1.7106188    5.8096869 
        2.81   -1.8811129    1.7028068    5.8117625 
        2.82   -1.8780394    1.7112577    5.7218476 
        2.83   -1.8765508    1.7827827    5.3290315 
        2.84   -1.8765581    1.8515875    4.9360415 
        2.85   -1.8761642    1.8858064     4.704474 
        2.86   -1.8768083    1.8805866     4.659469 
        2.87   -1.8792572    1.8471765    4.7452803 
        2.88   -1.8791099    1.8182679    4.8184618 
        2.89   -1.8786018    1.8130419    4.7912633 
         2.9   -1.8800521    1.8208607    4.7158644 
        2.91   -1.8795718    1.8252023    4.6848502 
        2.92   -1.8803673      1.79366    4.8398843 
        2.93   -1.8810974     1.724124    5.1818927 
        2.94   -1.8802865    1.6696998    5.4645248 
        2.95   -1.8799242    1.6575394     5.553867 
        2.96   -1.8797897    1.6673862    5.5351384 
        2.97    -1.879797    1.6945795    5.4322289 
        2.98   -1.8786568    1.7275886    5.3046624 
        2.99   -1.8794455      1.73439    5.2969724 
           3   -1.8786366    1.7093077    5.4453755 
        3.01    -1.879418     1.671812    5.6555813 
        3.02   -1.8796661    1.6320743    5.8725462 
        3.03   -1.8791084    1.6118664    5.9867983 
        3.04   -1.8792667    1.6411049    5.8625167 
        3.05   -1.8797186    1.6915725    5.6354241 
        3.06    -1.878933    1.7092525     5.558043 
        3.07    -1.877726    1.6942627    5.6291595 
        3.08   -1.8772987    1.6808555    5.6798146 
        3.09   -1.8791231    1.7042067    5.5379436 
         3.1    -1.879687    1.7627042    5.2211553 
        3.11   -1.8807683    1.8108032    4.9452997 
        3.12    -1.879578    1.8108446    4.8949441 
        3.13   -1.8806886    1.7767723    5.0025212 
        3.14   -1.8796174    1.7658865    5.0179402 
        3.15    -1.879406    1.8017468    4.8336969 
        3.16   -1.8798535    1.8382037    4.6628757 
        3.17    -1.880232    1.8231806    4.7442959 
        3.18   -1.8804273    1.7746389    4.9980845 
        3.19   -1.8795568    1.7448211     5.191045 
         3.2   -1.8811301    1.7058138    5.4305609 
        3.21   -1.8809679    1.6466852    5.7596439 
        3.22   -1.8823689    1.5986913    6.0176635 
        3.23   -1.8810627    1.5955598    6.0488581 
        3.24   -1.8799148    1.6397056    5.8403149 
        3.25   -1.8807414    1.6996848    5.5471059 
        3.26   -1.8799735    1.7298593    5.3965638 
        3.27   -1.8808479    1.7135397    5.4630488 
        3.28    -1.880299    1.6864574    5.5871997 
        3.29   -1.8795442    1.6773144    5.6286488 
         3.3   -1.8794087    1.6741727    5.6277418 
        3.31   -1.8794895    1.6925194    5.5126385 
        3.32   -1.8811348    1.7578423    5.1776929 
        3.33   -1.8812779    1.8038341    4.9324646 
        3.34   -1.8803401    1.8016179    4.9166858 
        3.35   -1.8799379    1.7686233    5.0513617 
        3.36    -1.877833    1.7207463    5.2577726 
        3.37     -1.87739    1.6837732    5.3995764 
        3.38   -1.8783207    1.7058111    5.2569372 
        3.39   -1.8785058    1.7734388    4.8969048 
         3.4   -1.8783749    1.8346214    4.5633917 
        3.41   -1.8799387    1.8781707    4.3206151 
        3.42   -1.8789174    1.9008275    4.2009387 
        3.43   -1.8781425    1.8831172    4.2877985 
        3.44   -1.8777166    1.8274649    4.5633425 
        3.45   -1.8774406     1.772152    4.8454773 
        3.46   -1.8771744    1.7406957    5.0158419 
        3.47   -1.8771786    1.7426651    5.0268128 
        3.48   -1.8773593    1.7703584    4.9192925 
        3.49   -1.8769903    1.7773769    4.9077861 
         3.5   -1.8772127    1.7374668    5.1062562 
        3.51   -1.8780594    1.6851852    5.3495161 
        3.52   -1.8797411    1.6848266    5.3390642 
        3.53    -1.881897    1.7508275    5.0114601 
        3.54   -1.8823414    1.8224152    4.6554644 
        3.55   -1.8827581    1.8409463    4.5504465 
        3.56    -1.883366    1.7866513    4.7895157 
        3.57   -1.8831157    1.7293785    5.0546129 
        3.58   -1.8843002     1.758643    4.9398469 
        3.59   -1.8853165     1.782287    4.8411655 
         3.6   -1.8843714     1.798758    4.7706768 
        3.61   -1.8868868    1.8282871    4.6336068 
        3.62   -1.8858317    1.8417528    4.5727287 
        3.63   -1.8866129    1.8406872    4.5791741 
        3.64   -1.8864776    1.8261076    4.6543676 
        3.65   -1.8847647    1.8031659    4.7741182 
        3.66   -1.8859545    1.7833335    4.8768688 
        3.67   -1.8846566    1.7567674    5.0083091 
        3.68   -1.8842115    1.7280231    5.1357729 
        3.69   -1.8821507    1.7403817    5.0741923 
         3.7   -1.8819752    1.7673971    4.9450544 
        3.71   -1.8814243    1.7390539    5.0683843 
        3.72   -1.8827554    1.6903887    5.2820838 
        3.73   -1.8818827    1.7096603    5.1942557 
        3.74    -1.881407     1.770223    4.9126168 
        3.75   -1.8803789    1.8159789    4.6963515 
        3.76   -1.8822029    1.8216597    4.6644991 
        3.77    -1.881245    1.7903539    4.8138694 
        3.78   -1.8804395    1.7602031    4.9631162 
        3.79   -1.8795558    1.7543488    5.0012217 
         3.8   -1.8793151     1.748126    5.0334295 
        3.81   -1.8807366    1.7237973    5.1401339 
        3.82   -1.8843671    1.6947431    5.2621652 
        3.83   -1.8830446    1.6899075     5.280496 
        3.84   -1.8815105    1.7236015    5.1254955 
        3.85   -1.8807475     1.765441    4.9349867 
        3.86   -1.8815329    1.7872504    4.8404247 
        3.87   -1.8811261    1.7811104    4.8845938 
        3.88   -1.8798016    1.7588607     5.011121 
        3.89   -1.8804448    1.7390646    5.1265626 
         3.9   -1.8801987    1.7310379    5.1897073 
        3.91   -1.8794261    1.7238314    5.2463604 
        3.92   -1.8779636    1.7117959    5.3205857 
        3.93    -1.878609    1.7189756    5.3037408 
        3.94   -1.8803508    1.7508493    5.1801502 
        3.95   -1.8805116    1.7670701    5.1384586 
        3.96   -1.8799579    1.7378753    5.3057983 
        3.97   -1.8805696    1.6872862    5.5591938 
        3.98   -1.8802876    1.6555014    5.7077385 
        3.99    -1.882118    1.6640963    5.6445537 
           4   -1.8810971    1.7078488    5.4084189 
        4.01   -1.8816424    1.7595305    5.1286937 
        4.02   -1.8821655    1.7915921    4.9440782 
        4.03   -1.8831869    1.7990289    4.8813151 
        4.04   -1.8826626    1.7980504    4.8695615 
        4.05   -1.8837073    1.7927819    4.8782882 
        4.06   -1.8838235    1.7838061    4.9028894 
        4.07    -1.884349    1.7842783    4.8827975 
        4.08   -1.8835912    1.7905056    4.8412305 
        4.09   -1.8841194    1.7784704     4.884049 
         4.1   -1.8827886    1.7424893    5.0375248 
        4.11   -1.8823549    1.7118229    5.1557522 
        4.12   -1.8838009    1.7260475    5.0530721 
        4.13   -1.8839819    1.7761738    4.7784075 
        4.14   -1.8821634     1.814893    4.5573721 
        4.15    -1.882022    1.8253588    4.4747121 
        4.16   -1.8799286    1.8151246    4.5085904 
        4.17   -1.8808332     1.794084    4.6037997 
        4.18   -1.8804421    1.7750933    4.7042913 
        4.19   -1.8820284    1.7597915    4.7949389 
         4.2    -1.883461    1.7340252    4.9409451 
        4.21    -1.883593    1.6968445    5.1457671 
        4.22    -1.884085    1.6558205     5.362854 
        4.23   -1.8827655    1.6403058    5.4538899 
        4.24   -1.8822727    1.6656175    5.3432002 
        4.25   -1.8824376    1.7035958    5.1639831 
        4.26    -1.881905    1.7191274    5.0866493 
        4.27   -1.8827866    1.7160626    5.1010601 
        4.28   -1.8821529    1.7149522    5.1268253 
        4.29   -1.8825578    1.7001825    5.2278718 
         4.3   -1.8809548    1.6629194    5.4411297 
        4.31   -1.8815862    1.6341576    5.6099461 
        4.32   -1.8809274    1.6406433    5.6052656 
        4.33   -1.8813298     1.692005    5.3723599 
        4.34   -1.8819159    1.7715839    4.9939442 
        4.35   -1.8817976    1.8228694    4.7367695 
        4.36   -1.8817716    1.8258511    4.7008818 
        4.37    -1.884216    1.8028367    4.7845356 
        4.38    -1.884592    1.7887653    4.8350708 
        4.39   -1.8846244    1.7973496    4.7877376 
         4.4   -1.8838787    1.7993614    4.7741527 
        4.41   -1.8830488    1.7679188    4.9075041 
        4.42   -1.8834133     1.749714    4.9709408 
        4.43   -1.8826854    1.7681135    4.8606938 
        4.44   -1.8822679     1.782547    4.7581693 
        4.45   -1.8827955    1.8033793    4.6281832 
        4.46   -1.8813648     1.825258    4.5016148 
        4.47    -1.881877    1.8399136    4.4098575 
        4.48    -1.881751    1.8569211     4.318655 
        4.49   -1.8823099    1.8707005    4.2543912 
         4.5   -1.8825572    1.8548486    4.3336405 
        4.51   -1.8810925    1.8222626    4.4967676 
        4.52    -1.881876    1.8003973    4.6102368 
        4.53    -1.881892    1.7912732    4.6680107 
        4.54   -1.8824285    1.7808998    4.7322888 
        4.55   -1.8822952    1.7604008    4.8457356 
        4.56   -1.8810964    1.7367837    4.9735942 
        4.57   -1.8812011    1.7379211     4.981421 
        4.58   -1.8822818    1.7833463    4.7829098 
        4.59   -1.8808781    1.8379287     4.547579 
         4.6   -1.8814021    1.8644868    4.4458897 
        4.61   -1.8826873    1.8576272    4.5092109 
        4.62   -1.8825499    1.8365765    4.6513855 
        4.63   -1.8817886    1.8104154    4.8214654 
        4.64   -1.8825731    1.7653747    5.0653709 
        4.65   -1.8839693    1.7093002    5.3377107 
        4.66    -1.884869    1.6848079    5.4436739 
        4.67   -1.8839944    1.7061502    5.3259458 
        4.68   -1.8824714    1.7347671    5.1705853 
        4.69   -1.8832659    1.7251993    5.1932673 
         4.7   -1.8816665    1.6716867    5.4326746 
        4.71   -1.8822731    1.6095496    5.7124044 
        4.72   -1.8830174    1.5936791     5.771839 
        4.73   -1.8824168    1.6567253    5.4601244 
        4.74   -1.8839118    1.7486905    5.0014462 
        4.75   -1.8841688    1.8062302    4.6991438 
        4.76   -1.8853177    1.8212839    4.5964409 
        4.77   -1.8847772    1.8145047    4.6044274 
        4.78   -1.8846465    1.8041101    4.6336537 
        4.79   -1.8847922    1.7935497    4.6670649 
         4.8   -1.8841484    1.7727478    4.7523888 
        4.81   -1.8832113    1.7414892     4.893889 
        4.82   -1.8834942    1.7174615    5.0169524 
        4.83   -1.8820686    1.6829095    5.2026954 
        4.84   -1.8830507     1.632799    5.4558345 
        4.85   -1.8848501    1.6202366    5.5320465 
        4.86   -1.8852865     1.669248    5.3223406 
        4.87   -1.8846827    1.7391778    5.0122783 
        4.88    -1.884175    1.7786027    4.8418038 
        4.89    -1.884683    1.7690222    4.9004793 
         4.9   -1.8830747    1.7290873    5.1078048 
        4.91   -1.8813538    1.7041145    5.2503264 
        4.92   -1.8790257    1.7170053    5.2182486 
        4.93    -1.879419    1.7508276    5.0775496 
        4.94   -1.8799501    1.7901663    4.9047762 
        4.95     -1.88022    1.8203769    4.7708352 
        4.96   -1.8803449    1.8294386    4.7311825 
        4.97    -1.880719     1.821828    4.7628415 
        4.98   -1.8787413    1.8198036    4.7647749 
        4.99   -1.8788858    1.8421416     4.642674 
           5   -1.8790504    1.8762515    4.4592508 
        5.01   -1.8798507    1.8925629    4.3553522 
        5.02   -1.8785289    1.8763084    4.4114983 
        5.03   -1.8789048    1.8408839    4.5667407 
        5.04   -1.8799516    1.8045397    4.7393669 
        5.05   -1.8800875    1.7672358    4.9241226 
        5.06   -1.8803266    1.7312045    5.0992265 
        5.07   -1.8803239    1.7172102    5.1657529 
        5.08   -1.8812685    1.7297062    5.1005085 
        5.09   -1.8824555    1.7401153    5.0317402 
         5.1   -1.8830713    1.7384336    5.0039398 
        5.11   -1.8847542    1.7506169    4.8989205 
        5.12   -1.8862087      1.78683    4.6783898 
        5.13   -1.8863643    1.8277326    4.4422592 
        5.14   -1.8858595    1.8461334    4.3221387 
        5.15   -1.8841403    1.8264411    4.3894155 
        5.16   -1.8842247    1.7908071    4.5328592 
        5.17   -1.8843666    1.7819775    4.5584803 
        5.18   -1.8860928    1.7961791    4.4804732 
        5.19   -1.8867346    1.8066276    4.4295413 
         5.2   -1.8868717    1.8116828      4.42141 
        5.21   -1.8862179    1.8031542     4.492491 
        5.22   -1.8869729    1.7845042    4.6161736 
        5.23   -1.8871083    1.7773505     4.693505 
        5.24   -1.8868718    1.7781573    4.7393367 
        5.25   -1.8862244    1.7652545     4.852783 
        5.26   -1.8849017    1.7373855    5.0405127 
        5.27   -1.8842497    1.7103985    5.2275188 
        5.28   -1.8846624    1.6865574     5.400092 
        5.29   -1.8845302    1.6538971    5.6099953 
         5.3   -1.8834515    1.6225744    5.8068344 
        5.31   -1.8843758    1.6250957    5.8354681 
        5.32   -1.8828417    1.6549425     5.728313 
        5.33   -1.8825891    1.6820141    5.6169977 
        5.34   -1.8815511    1.6923186    5.5747301 
        5.35   -1.8814082    1.6790444    5.6306955 
        5.36   -1.8801907    1.6582499    5.7128552 
        5.37   -1.8808481    1.6665711    5.6518534 
        5.38   -1.8803613    1.7011228    5.4669749 
        5.39   -1.8815422    1.7271139    5.3134789 
         5.4   -1.8824422     1.732924    5.2523165 
        5.41   -1.8824252    1.7312319     5.230868 
        5.42   -1.8821779     1.734572    5.1948091 
        5.43   -1.8819313    1.7315407    5.1958418 
        5.44   -1.8829574    1.7076401     5.291946 
        5.45   -1.8818512    1.6810117    5.3952885 
        5.46   -1.8819667    1.7022902    5.2646673 
        5.47   -1.8808361    1.7786827    4.8710572 
        5.48   -1.8808753    1.8647351    4.4242237 
        5.49    -1.881014    1.9176596    4.1331556 
         5.5   -1.8811251    1.9253616     4.061729 
        5.51   -1.8824095    1.9054852    4.1295333 
        5.52   -1.8821529    1.8798595     4.238273 
        5.53   -1.8823042    1.8509266    4.3663711 
        5.54   -1.8825155    1.8200392    4.4996833 
        5.55   -1.8839756    1.8351733     4.422904 
        5.56   -1.8836312    1.8763195    4.2297797 
        5.57   -1.8831977    1.8907516    4.1513801 
        5.58   -1.8832985    1.9022965    4.0825665 
        5.59   -1.8827886    1.9327655    3.9270666 
         5.6    -1.883864    1.9665339    3.7538279 
        5.61   -1.8834693    1.9726371    3.7125493 
        5.62   -1.8837062    1.9490479    3.8161474 
        5.63   -1.8821331    1.9174827    3.9772984 
        5.64   -1.8808414    1.8846622    4.1662689 
        5.65   -1.8829415    1.8436533    4.4110235 
        5.66   -1.8816536    1.7875796    4.7489007 
        5.67   -1.8804432    1.7152204    5.1636783 
        5.68   -1.8812106    1.6578533    5.4938588 
        5.69   -1.8809481    1.6345299    5.6436701 
         5.7   -1.8812226    1.6464016    5.6023736 
        5.71   -1.8817725    1.6784476    5.4449225 
        5.72   -1.8816267    1.7106161     5.272951 
        5.73   -1.8812435    1.7519445    5.0583732 
        5.74   -1.8795805     1.791851    4.8582618 
        5.75   -1.8797011    1.7999307    4.8037221 
        5.76   -1.8786232    1.7854896    4.8541954 
        5.77    -1.878478    1.7799596    4.8583774 
        5.78   -1.8801774    1.7998955    4.7358845 
        5.79   -1.8804396    1.8463019    4.4897198 
         5.8   -1.8808625     1.910518    4.1667995 
        5.81   -1.8814052    1.9584778    3.9335942 
        5.82   -1.8811439     1.961448    3.9319499 
        5.83    -1.881774    1.9147211    4.1798021 
        5.84    -1.880833    1.8407427    4.5679402 
        5.85   -1.8808142    1.7707129    4.9340485 
        5.86     -1.88119    1.7317779    5.1429024 
        5.87   -1.8793783    1.7403833    5.1231868 
        5.88    -1.879023    1.7804783    4.9493391 
        5.89   -1.8785173    1.8144948    4.8026206 
         5.9    -1.878759    1.8229623    4.7759205 
        5.91   -1.8791507    1.8174788    4.8219238 
        5.92   -1.8787541    1.8023747    4.9207555 
        5.93   -1.8795511    1.7803251    5.0549696 
        5.94   -1.8791589    1.7429445    5.2585911 
        5.95   -1.8782025    1.6973103    5.4873847 
        5.96   -1.8790902    1.6867813    5.5364067 
        5.97   -1.8800397    1.7354607    5.3037789 
        5.98   -1.8793072    1.8063124    4.9714829 
        5.99   -1.8788009    1.8451784     4.797218 
           6   -1.8776198    1.8290291    4.8975573 
        6.01   -1.8769435    1.7665132    5.2287301 
        6.02   -1.8771747    1.6880143    5.6381095 
        6.03   -1.8767651    1.6291835    5.9498402 
        6.04   -1.8775578    1.6087236      6.06706 
        6.05   -1.8788966    1.6174902    6.0348891 
        6.06   -1.8782593    1.6229141    6.0096959 
        6.07   -1.8781964    1.6153128    6.0315413 
        6.08   -1.8785927    1.6443105    5.8814535 
        6.09   -1.8792998    1.7052984    5.5831164 
         6.1   -1.8812642    1.7455928    5.3773389 
        6.11   -1.8805989    1.7495088    5.3467879 
        6.12   -1.8816254    1.7296222    5.4245401 
        6.13   -1.8817323    1.7066907    5.5109853 
        6.14   -1.8814627    1.7044567    5.4902534 
        6.15   -1.8816141    1.7286986    5.3324896 
        6.16   -1.8832046    1.7567189    5.1416301 
        6.17   -1.8822884    1.7637169    5.0428262 
        6.18   -1.8835633    1.7525604    5.0222792 
        6.19   -1.8828927    1.7515415    4.9644277 
         6.2   -1.8821309    1.7780162    4.7934348 
        6.21   -1.8821583    1.8145486    4.5911043 
        6.22   -1.8820233    1.8350885    4.4785824 
        6.23   -1.8826763    1.8399765    4.4535942 
        6.24   -1.8812197    1.8322463    4.4995459 
        6.25   -1.8792508    1.8303299    4.5250208 
        6.26   -1.8792752    1.8401488    4.4980586 
        6.27   -1.8791428    1.8433558    4.5061968 
        6.28   -1.8801952     1.835073    4.5739042 
        6.29   -1.8796843    1.8109015    4.7240902 
         6.3   -1.8802097    1.7649383    4.9694494 
        6.31   -1.8808026    1.7114067    5.2323216 
        6.32   -1.8810635    1.7113691    5.2338311 
        6.33   -1.8803752    1.7622149    4.9928495 
        6.34    -1.881937    1.7775141    4.9017269 
        6.35   -1.8825204    1.7473121     5.020405 
        6.36   -1.8827567     1.726102    5.1036878 
        6.37   -1.8823788    1.7381606    5.0376228 
        6.38   -1.8816147    1.7670944    4.8941172 
        6.39   -1.8829125    1.7908406    4.7694089 
         6.4   -1.8832981    1.8132958     4.652751 
        6.41   -1.8835687    1.8420189    4.5106593 
        6.42   -1.8826958    1.8674389    4.3940295 
        6.43   -1.8832364    1.8561533    4.4548232 
        6.44   -1.8830714     1.794485    4.7566254 
        6.45   -1.8836864    1.7196944    5.1192301 
        6.46   -1.8853686    1.6828736    5.2980554 
        6.47   -1.8870025    1.7030705    5.2045812 
        6.48   -1.8862468    1.7246049    5.0927863 
        6.49   -1.8875021    1.7184985    5.0870252 
         6.5   -1.8870895    1.7295807    4.9948753 
        6.51    -1.887519    1.7754052    4.7404959 
        6.52   -1.8872648    1.8209365     4.494657 
        6.53   -1.8868814    1.8479857    4.3514543 
        6.54   -1.8859788    1.8434117    4.3735891 
        6.55   -1.8855676    1.8004223    4.5818821 
        6.56   -1.8844542    1.7465428     4.842545 
        6.57   -1.8851387    1.7440954    4.8711419 
        6.58   -1.8857144    1.7723167    4.7666826 
        6.59   -1.8841627    1.7712349    4.8074976 
         6.6   -1.8832221    1.7213273    5.0760982 
        6.61   -1.8832602    1.6603118    5.3877813 
        6.62   -1.8840819    1.6698284    5.3682533 
        6.63   -1.8841617     1.722296    5.1425591 
        6.64   -1.8833775     1.738183    5.0751631 
        6.65    -1.884252    1.7090384    5.2056917 
        6.66   -1.8837945    1.6797241    5.3312227 
        6.67   -1.8826706    1.7050027    5.2031095 
        6.68   -1.8823258    1.7431796    5.0059569 
        6.69   -1.8803357    1.7449006    4.9710484 
         6.7   -1.8817027    1.7388196    4.9669242 
        6.71   -1.8821383     1.778026    4.7649657 
        6.72   -1.8813953    1.8315829    4.5017189 
        6.73   -1.8799536     1.858551    4.3623459 
        6.74   -1.8804532    1.8616338    4.3329955 
        6.75   -1.8810889    1.8624184    4.3175053 
        6.76   -1.8797895    1.8749362    4.2539512 
        6.77   -1.8787597    1.8920729     4.172383 
        6.78   -1.8787694    1.8976329    4.1496532 
        6.79   -1.8787765    1.8818676    4.2353078 
         6.8   -1.8777288    1.8420245    4.4394966 
        6.81   -1.8787349    1.7887614    4.6956018 
        6.82   -1.8788207    1.7674334    4.7926757 
        6.83   -1.8796535    1.8142056    4.5676727 
        6.84     -1.88077    1.8819007    4.2463036 
        6.85   -1.8818206     1.896585    4.1763445 
        6.86   -1.8824205    1.8462113    4.4196783 
        6.87   -1.8832923    1.7819143    4.7414376 
        6.88   -1.8834428    1.7449786    4.9469046 
        6.89   -1.8839889    1.7237423     5.075373 
         6.9   -1.8821427    1.6988998    5.2121254 
        6.91   -1.8822557    1.6818658    5.2984931 
        6.92   -1.8824195    1.6841405    5.2887714 
        6.93   -1.8837461     1.678987     5.302748 
        6.94     -1.88449      1.65329    5.4035017 
        6.95   -1.8851259    1.6460519    5.4189154 
        6.96   -1.8846487    1.6752234    5.2717545 
        6.97   -1.8846697    1.7020256    5.1332098 
        6.98    -1.884645    1.7078159    5.0923695 
        6.99   -1.8841187    1.7104314    5.0728223 
           7   -1.8841099    1.7217941    5.0151584 
        7.01   -1.8838574    1.7493403     4.882404 
        7.02   -1.8836123    1.7839084    4.7120107 
        7.03   -1.8820497    1.8093591    4.5776795 
        7.04   -1.8812634    1.8196793    4.5063143 
        7.05   -1.8813885    1.8154913    4.5007797 
        7.06   -1.8805987    1.8049139    4.5330207 
        7.07   -1.8821816    1.7956795    4.5667262 
        7.08   -1.8829652    1.7820884    4.6320188 
        7.09   -1.8844129    1.7621691    4.7331419 
         7.1   -1.8842587    1.7294501    4.8942305 
        7.11   -1.8834403    1.7082428    4.9954965 
        7.12    -1.883172    1.7312806    4.8815501 
        7.13   -1.8834673    1.7992291    4.5505663 
        7.14   -1.8833663    1.8744628    4.1816319 
        7.15   -1.8849305    1.9214684     3.943779 
        7.16   -1.8841342    1.9350336    3.8774521 
        7.17   -1.8837333    1.9268985    3.9303256 
        7.18   -1.8855661    1.9092126    4.0460321 
        7.19   -1.8859792    1.8825965    4.2251499 
         7.2   -1.8837667    1.8363818    4.5083411 
        7.21   -1.8841181    1.7803463    4.8291821 
        7.22   -1.8855479    1.7549639    4.9965591 
        7.23   -1.8834756    1.7679571    4.9749557 
        7.24   -1.8833888    1.7943806    4.8742096 
        7.25   -1.8840427    1.7896111    4.9082679 
        7.26   -1.8829616    1.7493242    5.1082301 
        7.27   -1.8822785    1.7119055    5.2980528 
        7.28   -1.8816442    1.7031819    5.3559308 
        7.29   -1.8824233    1.7100959    5.3311797 
         7.3   -1.8832189    1.7276938    5.2508083 
        7.31   -1.8827208    1.7414524    5.1876916 
        7.32   -1.8826961    1.7338374    5.2205039 
        7.33   -1.8833537    1.7225078    5.2708574 
        7.34   -1.8833619    1.7114417    5.3171794 
        7.35   -1.8827251    1.6972869    5.3688451 
        7.36    -1.883355    1.6739905    5.4439053 
        7.37   -1.8829338      1.66341    5.4454617 
        7.38    -1.883841    1.6944698     5.243981 
        7.39   -1.8844049    1.7676574    4.8512925 
         7.4   -1.8848122    1.8389248    4.4763229 
        7.41   -1.8814186    1.8809814    4.2604982 
        7.42   -1.8818192    1.8864151    4.2329427 
        7.43    -1.881525    1.8510145    4.4147849 
        7.44   -1.8813489    1.8071592    4.6466835 
        7.45   -1.8833104    1.7986651    4.7160735 
        7.46   -1.8847872    1.8192105    4.6495468 
        7.47   -1.8843913     1.830948    4.6214345 
        7.48   -1.8830839    1.8275883    4.6681155 
        7.49    -1.883753    1.8092527    4.7904995 
         7.5   -1.8844103    1.7660426    5.0341303 
        7.51   -1.8831899    1.7019954    5.3751252 
        7.52   -1.8853869    1.6583476    5.6129737 
        7.53   -1.8840921     1.657649    5.6524031 
        7.54   -1.8843632    1.6898304    5.5304571 
        7.55   -1.8854479    1.7334003    5.3516404 
        7.56   -1.8854533    1.7477271    5.3053988 
        7.57   -1.8856849    1.7233115    5.4333473 
        7.58   -1.8849836    1.6941702     5.579378 
        7.59   -1.8829115    1.7062123    5.5320547 
         7.6   -1.8821766    1.7467829    5.3412944 
        7.61     -1.88178    1.7719574    5.2098328 
        7.62   -1.8804492    1.7816516    5.1494517 
        7.63   -1.8787711    1.7922071    5.0919606 
        7.64   -1.8791708    1.7907633    5.0907305 
        7.65   -1.8793063    1.7696422     5.183811 
        7.66   -1.8815387    1.7268097    5.3751246 
        7.67    -1.881385    1.6656436    5.6504615 
        7.68   -1.8818695    1.6162432    5.8611243 
        7.69   -1.8818578    1.6216203    5.8093702 
         7.7   -1.8813957    1.6879375    5.4690472 
        7.71   -1.8814225    1.7576441    5.1022232 
        7.72    -1.881023    1.7937953    4.8866186 
        7.73    -1.881388    1.7990203    4.8141273 
        7.74   -1.8807162    1.8018702    4.7599909 
        7.75   -1.8810087    1.8197885    4.6430749 
        7.76   -1.8808871    1.8322685    4.5583616 
        7.77   -1.8791943    1.8256641    4.5724006 
        7.78   -1.8803608    1.7985726    4.6854128 
        7.79   -1.8807411    1.7621015    4.8519114 
         7.8   -1.8805945    1.7346267    4.9863303 
        7.81   -1.8803574    1.7325122    5.0142763 
        7.82   -1.8809159    1.7368545    5.0175207 
        7.83   -1.8810199    1.7199623    5.1157035 
        7.84   -1.8803298    1.7036588    5.2037826 
        7.85   -1.8788865    1.7219283    5.1239088 
        7.86   -1.8773458    1.7756187    4.8766424 
        7.87   -1.8771303    1.8275494    4.6413634 
        7.88   -1.8780277    1.8316875    4.6351048 
        7.89   -1.8798187    1.7956375    4.8256606 
         7.9   -1.8809769    1.7552812    5.0450399 
        7.91   -1.8813759    1.7306512    5.1902858 
        7.92   -1.8809876    1.7197783    5.2618153 
        7.93   -1.8807194    1.7175434    5.2804855 
        7.94   -1.8809836    1.7250136    5.2455867 
        7.95   -1.8822898    1.7357896    5.1882635 
        7.96   -1.8843642    1.7465053    5.1258604 
        7.97   -1.8845066    1.7621852    5.0433252 
        7.98   -1.8841453    1.7705238    4.9966818 
        7.99   -1.8845398    1.7502527    5.0803018 
           8   -1.8846356    1.7076253    5.2666418 
        8.01     -1.88487    1.6833042    5.3710013 
        8.02   -1.8846388    1.6977835    5.3013425 
        8.03   -1.8834607    1.7248523    5.1756447 
        8.04   -1.8824334    1.7535118    5.0496209 
        8.05   -1.8833419    1.7651447     5.008925 
        8.06   -1.8839744    1.7587214    5.0626872 
        8.07   -1.8837169    1.7489122     5.142822 
        8.08   -1.8844998     1.734719    5.2433761 
        8.09   -1.8842389    1.7165737    5.3596616 
         8.1    -1.882412    1.6959698    5.4797556 
        8.11   -1.8809496    1.6764875    5.5771794 
        8.12   -1.8814473    1.6843136    5.5280899 
        8.13   -1.8823948    1.7394665    5.2476904 
        8.14    -1.883485    1.8079095    4.8956105 
        8.15   -1.8834815    1.8434661    4.6908253 
        8.16   -1.8837016    1.8459082     4.642038 
        8.17   -1.8831735    1.8478413    4.6111252 
        8.18    -1.882807     1.857173    4.5639899 
        8.19   -1.8817732    1.8499227    4.6097736 
         8.2    -1.881362    1.8178445    4.7824769 
        8.21   -1.8812385    1.7779978     5.002224 
        8.22   -1.8817661    1.7332869    5.2444527 
        8.23   -1.8804218    1.6893992    5.4739953 
        8.24    -1.879375    1.6834493    5.5139671 
        8.25   -1.8800745     1.717526    5.3501364 
        8.26    -1.879689    1.7555202    5.1504909 
        8.27   -1.8804655    1.7863223    4.9693579 
        8.28   -1.8823193    1.8122472    4.8087709 
        8.29    -1.882492    1.8101549    4.7892019 
         8.3   -1.8819658    1.7489936    5.0535042 
        8.31     -1.88237    1.6551565     5.474161 
        8.32   -1.8806894     1.639273    5.5565493 
        8.33   -1.8810325     1.691829    5.3248099 
        8.34    -1.881387      1.73176    5.1364321 
        8.35     -1.87902    1.7661394    4.9710325 
        8.36   -1.8800703    1.8047409    4.7804577 
        8.37   -1.8820379     1.835369     4.628177 
        8.38   -1.8826913     1.846826    4.5719485 
        8.39    -1.882684    1.8395975    4.6085088 
         8.4   -1.8833262    1.8262264    4.6766262 
        8.41   -1.8815084    1.8177243    4.7295407 
        8.42   -1.8811458    1.8020315    4.8143753 
        8.43   -1.8816521    1.7570559    5.0291646 
        8.44   -1.8808165    1.7019811     5.288996 
        8.45   -1.8829149    1.6846489    5.3717877 
        8.46   -1.8839983    1.7014183    5.2980485 
        8.47   -1.8842595    1.7173729    5.2238406 
        8.48   -1.8829463    1.7291479    5.1684087 
        8.49   -1.8817743    1.7385576    5.1205499 
         8.5   -1.8821317    1.7474632    5.0675283 
        8.51   -1.8831867    1.7802073    4.9039984 
        8.52   -1.8839873    1.8253341    4.6842783 
        8.53   -1.8833416     1.859999    4.5198291 
        8.54   -1.8840185    1.8701835    4.4808805 
        8.55   -1.8828557    1.8323725    4.6831792 
        8.56   -1.8829468    1.7401702     5.142347 
        8.57   -1.8832732    1.6379046    5.6424894 
        8.58   -1.8844393    1.5899605    5.8744301 
        8.59    -1.884348    1.6110138    5.7648462 
         8.6   -1.8830795    1.6644941    5.4812105 
        8.61   -1.8807459    1.7096178     5.219432 
        8.62   -1.8809839    1.7291268     5.062615 
        8.63   -1.8824117    1.7413945    4.9385076 
        8.64   -1.8834609    1.7591526    4.7952917 
        8.65   -1.8833305    1.7808474     4.643476 
        8.66   -1.8828082    1.8080861    4.4795821 
        8.67    -1.884265    1.8368027    4.3219992 
        8.68   -1.8845175    1.8450192    4.2714518 
        8.69   -1.8838256    1.8374734    4.3005834 
         8.7   -1.8842168    1.8453472    4.2618374 
        8.71   -1.8831907    1.8690738    4.1536376 
        8.72   -1.8829302    1.8906883    4.0549392 
        8.73   -1.8822937    1.9022959    4.0102846 
        8.74   -1.8837219    1.8915586    4.0749851 
        8.75   -1.8838217    1.8654677     4.222236 
        8.76   -1.8842165    1.8505403     4.327054 
        8.77   -1.8831972    1.8466211     4.388235 
        8.78   -1.8833463    1.8338649    4.4892507 
        8.79   -1.8832149    1.7987182    4.6920944 
         8.8   -1.8825207    1.7498201    4.9513555 
        8.81    -1.881847    1.7307503    5.0639348 
        8.82   -1.8808505    1.7599925    4.9465377 
        8.83   -1.8811433    1.7953789    4.7898967 
        8.84   -1.8795587    1.8005609    4.7680892 
        8.85   -1.8792537    1.7898771    4.8115104 
        8.86   -1.8802918    1.8042893    4.7326459 
        8.87   -1.8802019    1.8506291     4.503746 
        8.88   -1.8799576      1.89453    4.2814394 
        8.89   -1.8796889    1.9191871    4.1518975 
         8.9   -1.8811512     1.925232    4.1208026 
        8.91   -1.8810159    1.8949121     4.274674 
        8.92   -1.8821667    1.8352584    4.5731155 
        8.93   -1.8816254    1.7732663    4.8895718 
        8.94   -1.8820123     1.731603    5.1061025 
        8.95   -1.8829505    1.7151601    5.1941752 
        8.96    -1.882565    1.7064469    5.2357715 
        8.97    -1.882825    1.6996257    5.2625592 
        8.98   -1.8827107     1.694113    5.2874974 
        8.99   -1.8829769    1.6796512    5.3585499 
           9   -1.8838775    1.6541163    5.4822484 
        9.01   -1.8846371    1.6325367    5.5829821 
        9.02   -1.8834646    1.6368243     5.555169 
        9.03   -1.8837199    1.6684644    5.3825535 
        9.04   -1.8836338    1.7183362    5.1184603 
        9.05    -1.881685    1.7385567    4.9920334 
        9.06   -1.8808491    1.7119916    5.0850721 
        9.07   -1.8829005    1.6855566    5.1880984 
        9.08   -1.8833186    1.6976601    5.1317321 
        9.09   -1.8833415    1.7309523    4.9826575 
         9.1   -1.8822801    1.7652253    4.8278934 
        9.11    -1.882704     1.805009    4.6486942 
        9.12   -1.8840125    1.8246136    4.5659409 
        9.13   -1.8842425    1.8165293    4.6197896 
        9.14   -1.8844908     1.806057    4.6931709 
        9.15   -1.8843671    1.8039049    4.7318017 
        9.16   -1.8852857    1.8010133    4.7699223 
        9.17    -1.885156    1.7872556    4.8573927 
        9.18    -1.883979    1.7587473    5.0134906 
        9.19   -1.8843692    1.7179499    5.2218747 
         9.2    -1.883829    1.6745053    5.4389837 
        9.21   -1.8831834    1.6472836    5.5763582 
        9.22   -1.8828124    1.6365451    5.6309579 
        9.23   -1.8854259    1.6321302    5.6428017 
        9.24   -1.8845071    1.6367322    5.6105151 
        9.25   -1.8853111    1.6511893    5.5256076 
        9.26   -1.8851725    1.6569039    5.4797865 
        9.27   -1.8851389    1.6521294    5.4806678 
        9.28    -1.885132    1.6611676    5.4196041 
        9.29   -1.8855533    1.6867961    5.2837166 
         9.3   -1.8858182    1.7039964    5.1874631 
        9.31   -1.8843591     1.708333    5.1565155 
        9.32   -1.8834539    1.7170736    5.1138416 
        9.33   -1.8837414    1.7221116    5.0951288 
        9.34   -1.8839739    1.7056904    5.1795602 
        9.35   -1.8844646    1.6925566    5.2546792 
        9.36   -1.8861908    1.7062258    5.2118017 
        9.37   -1.8853221    1.7206411    5.1703937 
        9.38   -1.8854193    1.7024722    5.2680526 
        9.39   -1.8861646    1.6824701    5.3637507 
         9.4   -1.8863219    1.6936366     5.309715 
        9.41   -1.8859351    1.7127897    5.2088695 
        9.42   -1.8856563    1.7264806     5.125875 
        9.43   -1.8859233    1.7440975    5.0252126 
        9.44    -1.885026    1.7602387    4.9371529 
        9.45   -1.8837068     1.763054    4.9121863 
        9.46   -1.8838195    1.7664923    4.8822628 
        9.47   -1.8838507    1.7828714    4.7934586 
        9.48   -1.8842516      1.79057    4.7434594 
        9.49   -1.8846391    1.7786712    4.7886813 
         9.5   -1.8833677    1.7476712    4.9350728 
        9.51   -1.8829502    1.6812169    5.2435434 
        9.52   -1.8811424    1.6250635    5.5021714 
        9.53   -1.8807116    1.6643651    5.3289072 
        9.54   -1.8819239    1.7308003    5.0271885 
        9.55    -1.882272    1.7697783    4.8527849 
        9.56   -1.8826635    1.8027708    4.7185172 
        9.57   -1.8817707    1.8272507    4.6413808 
        9.58   -1.8816334    1.8224091    4.7121328 
        9.59   -1.8801943     1.790116    4.9243912 
         9.6   -1.8799176    1.7380244    5.2306382 
        9.61   -1.8811853    1.6884593    5.5165742 
        9.62   -1.8823874    1.6745489    5.6288624 
        9.63   -1.8817957    1.6775913    5.6527332 
        9.64   -1.8828417    1.6464758    5.8117844 
        9.65   -1.8823947    1.5816865    6.1057023 
        9.66    -1.882871    1.5429633    6.2554555 
        9.67   -1.8822502    1.5757914    6.0570092 
        9.68   -1.8826953    1.6525768    5.6379361 
        9.69   -1.8825893    1.7194034    5.2614971 
         9.7   -1.8840288    1.7446148    5.0852084 
        9.71   -1.8850176    1.7311443    5.1067587 
        9.72   -1.8843709    1.7216166    5.1386225 
        9.73   -1.8843807    1.7153039    5.1722479 
        9.74   -1.8851334    1.7059163    5.2298494 
        9.75   -1.8833293    1.7149328    5.2215016 
        9.76   -1.8836071    1.7257073    5.2104683 
        9.77    -1.882535    1.7205097    5.2766829 
        9.78   -1.8818762    1.7157877    5.3389914 
        9.79   -1.8800461    1.7204484    5.3513904 
         9.8   -1.8813497     1.738818    5.2804397 
        9.81   -1.8801987    1.7684168    5.1462923 
        9.82   -1.8796992    1.7830406    5.0670693 
        9.83   -1.8790189    1.7637115     5.135234 
        9.84   -1.8787379    1.7354971    5.2406957 
        9.85   -1.8800472    1.7204491    5.2786453 
        9.86   -1.8797694    1.7239936    5.2248612 
        9.87   -1.8801888    1.7564139    5.0357644 
        9.88   -1.8796869    1.7892039    4.8522835 
        9.89   -1.8803358    1.7968094    4.7967812 
         9.9   -1.8798122    1.7757027    4.8915233 
        9.91   -1.8804404    1.7358829    5.0810855 
        9.92   -1.8797612    1.7050736    5.2369917 
        9.93   -1.8806952    1.7082761    5.2394416 
        9.94   -1.8795504    1.7294606    5.1642394 
        9.95   -1.8805798    1.7419938    5.1236191 
        9.96   -1.8784823    1.7512535    5.1056934 
        9.97   -1.8800722    1.7595027    5.0925769 
        9.98   -1.8802175    1.7470568     5.178559 
        9.99   -1.8795424    1.7065786     5.388385 
          10   -1.8801613    1.6638934    5.5938358 
Loop time of 0.815589 on 8 procs for 10000 steps with 125 atoms

Performance: 1059357.166 tau/day, 12261.078 timesteps/s
189.7% CPU use with 1 MPI tasks x 8 OpenMP threads

MPI task timing breakdown:
Section |  min time  |  avg time  |  max time  |%varavg| %total
---------------------------------------------------------------
Pair    | 0.5077     | 0.5077     | 0.5077     |   0.0 | 62.25
Neigh   | 0.00299    | 0.00299    | 0.00299    |   0.0 |  0.37
Comm    | 0.033881   | 0.033881   | 0.033881   |   0.0 |  4.15
Output  | 0.013964   | 0.013964   | 0.013964   |   0.0 |  1.71
Modify  | 0.24908    | 0.24908    | 0.24908    |   0.0 | 30.54
Other   |            | 0.007973   |            |       |  0.98

Nlocal:        125.000 ave         125 max         125 min
Histogram: 1 0 0 0 0 0 0 0 0 0
Nghost:        2225.00 ave        2225 max        2225 min
Histogram: 1 0 0 0 0 0 0 0 0 0
Neighs:        18981.0 ave       18981 max       18981 min
Histogram: 1 0 0 0 0 0 0 0 0 0

Total # of neighbors = 18981
Ave neighs/atom = 151.84800
Neighbor list builds = 28
Dangerous builds = 0
unfix nve
reset_timestep 0

### BRING SYSTEM TO REQUIRED STATE ###
variable tdamp equal ${timestep}*100
variable tdamp equal 0.001*100
variable pdamp equal ${timestep}*1000
variable pdamp equal 0.001*1000
fix npt all npt temp ${T} ${T} ${tdamp} iso ${p} ${p} ${pdamp}
fix npt all npt temp 2.25 ${T} ${tdamp} iso ${p} ${p} ${pdamp}
fix npt all npt temp 2.25 2.25 ${tdamp} iso ${p} ${p} ${pdamp}
fix npt all npt temp 2.25 2.25 0.1 iso ${p} ${p} ${pdamp}
fix npt all npt temp 2.25 2.25 0.1 iso 2 ${p} ${pdamp}
fix npt all npt temp 2.25 2.25 0.1 iso 2 2 ${pdamp}
fix npt all npt temp 2.25 2.25 0.1 iso 2 2 1
run 10000
Last active /omp style is pair_style lj/cut/omp
Per MPI rank memory allocation (min/avg/max) = 10.63 | 10.63 | 10.63 Mbytes
Time TotEng Temp Press 
          10   -1.8801613    1.6638934    5.5938358 
       10.01   -1.8772298    1.6565726    5.6248966 
       10.02   -1.8629174     1.679765     5.510047 
       10.03    -1.839939    1.7021683    5.3881216 
       10.04   -1.8060042       1.7382    5.2086601 
       10.05   -1.7621783    1.8129053    4.8758419 
       10.06   -1.7119287    1.8837564    4.5844147 
       10.07   -1.6580932    1.9093222     4.508599 
       10.08   -1.6099992    1.9097292    4.5281194 
       10.09   -1.5686198     1.925733    4.4455231 
        10.1   -1.5327995     1.976437    4.1750853 
       10.11   -1.5032675    2.0389534    3.8231118 
       10.12   -1.4811776    2.0789273    3.5484249 
       10.13   -1.4620509    2.0909041    3.3929198 
       10.14   -1.4473858    2.0827567    3.3267604 
       10.15   -1.4342726    2.0615869    3.3250862 
       10.16   -1.4215577    2.0352017    3.3559902 
       10.17   -1.4093263    2.0019037    3.4223225 
       10.18   -1.3960708    1.9609811    3.5224458 
       10.19   -1.3825489    1.9174986    3.6255848 
        10.2   -1.3644019    1.8868121    3.6700591 
       10.21   -1.3416512    1.8797517    3.6159578 
       10.22   -1.3160299    1.8767127    3.5460408 
       10.23   -1.2880231    1.8606779    3.5266306 
       10.24   -1.2574539    1.8414189    3.5098531 
       10.25   -1.2249063    1.8458977    3.3828825 
       10.26   -1.1908351    1.8878911    3.0999149 
       10.27   -1.1514646    1.9413145    2.7825352 
       10.28   -1.1095556    1.9733887    2.5618022 
       10.29   -1.0665223    1.9794026    2.4527768 
        10.3   -1.0263127    1.9835784    2.3553229 
       10.31  -0.98495631    2.0067289    2.2017659 
       10.32  -0.94208786    2.0279984    2.0801234 
       10.33  -0.89998318    2.0159269    2.1068749 
       10.34  -0.85715877    1.9779086    2.2484337 
       10.35  -0.81776108    1.9663772    2.2988921 
       10.36  -0.77442692     2.001279    2.1951703 
       10.37  -0.72716748    2.0460264    2.0735325 
       10.38  -0.67882386    2.0704464     2.041915 
       10.39  -0.63111774    2.0648467    2.1300495 
        10.4  -0.58648145    2.0491414    2.2570955 
       10.41  -0.53999635    2.0522764    2.3217396 
       10.42  -0.49332404    2.0756538     2.315814 
       10.43  -0.44778635    2.0976302    2.3118518 
       10.44  -0.40259315    2.1217646     2.294133 
       10.45  -0.35526153    2.1732799    2.1792061 
       10.46    -0.309414    2.2185599    2.0827473 
       10.47  -0.26708525    2.2427043    2.0599429 
       10.48  -0.22628424    2.2491152    2.1064184 
       10.49  -0.18946797    2.2266149    2.2550884 
        10.5  -0.15458899    2.1817398    2.4763844 
       10.51  -0.12242175    2.1476956    2.6433827 
       10.52 -0.090972357      2.15807    2.6399603 
       10.53 -0.058285993    2.2149541    2.4701881 
       10.54 -0.024198586    2.2959971    2.2293439 
       10.55 0.0087867986    2.3121169    2.2217319 
       10.56  0.039275289    2.2502915    2.4808019 
       10.57  0.065056775    2.2185117    2.6322573 
       10.58  0.090337834    2.2602087    2.5301972 
       10.59   0.11675394    2.3284386    2.3323208 
        10.6   0.14295895    2.3899781    2.1532222 
       10.61   0.16400035    2.4201423    2.0721575 
       10.62   0.17958068    2.3986042    2.1524498 
       10.63   0.18868565    2.3578717    2.2817272 
       10.64   0.19574449    2.3511497    2.2919195 
       10.65   0.19905855    2.3662838    2.2229594 
       10.66   0.19954598    2.3710505     2.185583 
       10.67   0.19534938    2.3431907    2.2515123 
       10.68   0.18778089    2.2843536    2.4139008 
       10.69   0.17869166    2.2178729    2.5954136 
        10.7   0.16934066    2.1454197    2.7854203 
       10.71   0.16166413    2.0751076     2.952387 
       10.72   0.15677765    2.0673472    2.9057048 
       10.73   0.15764108    2.1480055     2.579633 
       10.74   0.16689289    2.2263331    2.2763344 
       10.75   0.18144443    2.2618828    2.1287666 
       10.76   0.19722024    2.2709627    2.0822817 
       10.77   0.21613008    2.2611098     2.108978 
       10.78   0.23451701    2.2542835    2.1306265 
       10.79   0.25335828    2.2601129    2.1153261 
        10.8   0.27536286    2.2579424    2.1273959 
       10.81    0.2991201    2.2524018    2.1499414 
       10.82   0.32332344    2.2668476    2.1102219 
       10.83   0.35033389    2.3121926    1.9809044 
       10.84   0.38011553    2.3721213    1.8178909 
       10.85   0.40946424    2.4091253    1.7359951 
       10.86   0.43525446    2.3980757    1.8054709 
       10.87   0.45911714    2.3553047    1.9661132 
       10.88   0.48154833    2.3625017    1.9609558 
       10.89   0.50267538    2.4273299    1.7669321 
        10.9   0.52010842    2.4793415    1.6019426 
       10.91   0.53258158    2.5073174    1.5087149 
       10.92   0.54045826     2.507796    1.4998035 
       10.93   0.54036834    2.4776574    1.5770105 
       10.94   0.53370328    2.4203095    1.7236091 
       10.95   0.52264495    2.3570775    1.8682234 
       10.96    0.5045078     2.337928    1.8557887 
       10.97   0.48149447     2.356416    1.7092541 
       10.98   0.45333601    2.3594929    1.5902448 
       10.99   0.41755005    2.3244776    1.5680421 
          11   0.37618133    2.2710071    1.5883005 
       11.01    0.3259366    2.2331917    1.5475849 
       11.02   0.27180014    2.2141643     1.443823 
       11.03   0.21179783    2.1907504    1.3475877 
       11.04   0.14905068    2.1494467    1.3079418 
       11.05  0.086349171    2.0938842    1.3219046 
       11.06  0.026334506     2.033055    1.3678185 
       11.07 -0.026876843    1.9772998    1.4197259 
       11.08 -0.072303223    1.9338626    1.4572775 
       11.09  -0.10731872     1.894164     1.507902 
        11.1  -0.13235109    1.8484452    1.5979466 
       11.11   -0.1466465      1.80931    1.6881691 
       11.12  -0.14990191    1.7947193    1.7235659 
       11.13  -0.14144794    1.7994707    1.7200747 
       11.14  -0.12133356    1.8143881    1.7082161 
       11.15 -0.088926245    1.8356542     1.703354 
       11.16 -0.044375923    1.8690168    1.6901338 
       11.17  0.010467992    1.9334054    1.6133534 
       11.18  0.074135425    2.0232492    1.4910955 
       11.19   0.14480952    2.0975827    1.4433019 
        11.2   0.21604407    2.1329316    1.5308686 
       11.21   0.28372969    2.1357006    1.7246976 
       11.22   0.34355027    2.1129403    1.9867281 
       11.23   0.39913274    2.0988454    2.2057079 
       11.24    0.4472445    2.1441829    2.2216324 
       11.25   0.49111396    2.2275884     2.102551 
       11.26   0.52984799    2.2754766    2.0711054 
       11.27   0.56102192    2.2684578    2.1851819 
       11.28   0.58707424    2.2620723    2.2790235 
       11.29   0.61036791    2.2999495    2.2186115 
        11.3   0.62846442    2.3666122    2.0450631 
       11.31   0.64179832    2.4319865    1.8541417 
       11.32   0.64747233    2.4781031    1.7050477 
       11.33    0.6474368    2.4962179     1.632358 
       11.34   0.64061348    2.4863195     1.637786 
       11.35   0.62451639     2.468111    1.6613459 
       11.36   0.60216773    2.4478225    1.6864838 
       11.37   0.57622986    2.4126084    1.7516321 
       11.38   0.54478157    2.3533477    1.8776318 
       11.39   0.51014174    2.2987316    1.9778511 
        11.4   0.47711212     2.290872    1.9316535 
       11.41   0.44224839    2.3123119    1.7908817 
       11.42   0.40482794    2.3119446    1.7141322 
       11.43   0.36613657     2.281193    1.7358926 
       11.44    0.3276146    2.2442929    1.7881705 
       11.45   0.29152941    2.2077668    1.8523721 
       11.46   0.25809783    2.1553714    1.9738015 
       11.47   0.22949738    2.0997451    2.1129712 
       11.48   0.20736109    2.0935668    2.1104948 
       11.49   0.18839189    2.1327454    1.9712371 
        11.5   0.17213571    2.1626139    1.8588312 
       11.51   0.15762015    2.1632122    1.8366396 
       11.52    0.1463709    2.1450316     1.875647 
       11.53   0.13781669    2.1345436    1.8923743 
       11.54   0.13163083     2.147988     1.833667 
       11.55   0.12944351     2.181382    1.7139615 
       11.56   0.12869842    2.2154939    1.5940483 
       11.57   0.12793525    2.2381345    1.5169768 
       11.58   0.12743369    2.2437384    1.5063263 
       11.59   0.12749739    2.2261185    1.5838527 
        11.6   0.12921688    2.1881352     1.740463 
       11.61   0.13166905    2.1422333    1.9307172 
       11.62   0.13734587    2.1018259    2.1047303 
       11.63   0.14891541    2.1161185    2.1084722 
       11.64   0.16822405    2.1902461    1.9305175 
       11.65   0.18975987    2.2638757    1.7590845 
       11.66   0.21439859    2.3098079     1.692047 
       11.67   0.24500535    2.3275147    1.7411579 
       11.68   0.27554591    2.3444316    1.8198729 
       11.69    0.3115501    2.3222826    2.0465128 
        11.7   0.34965434     2.244752    2.4526809 
       11.71   0.39233277    2.2066556    2.7303839 
       11.72   0.44090434    2.2565556    2.7147443 
       11.73   0.49387024    2.3771295    2.4589122 
       11.74   0.54681349    2.5097682    2.1536465 
       11.75   0.59707965     2.594424    1.9964207 
       11.76   0.63840258     2.619273    2.0254908 
       11.77   0.66881548    2.5823278    2.2419604 
       11.78   0.68965417     2.516151    2.5348868 
       11.79   0.70065741    2.4991962    2.6511739 
        11.8   0.70198068    2.5043507    2.6690669 
       11.81   0.69581903    2.4715276     2.777311 
       11.82   0.68124473    2.4110865    2.9411936 
       11.83   0.66004541    2.3770732    2.9887282 
       11.84   0.63000931    2.4076648    2.7992951 
       11.85   0.59106896    2.4324483    2.5969927 
       11.86   0.54529682    2.4252183    2.4767884 
       11.87   0.49179675    2.4051255    2.3855082 
       11.88   0.43291905    2.3609067     2.359461 
       11.89   0.36866796    2.3126806    2.3335048 
        11.9   0.30504593     2.287913    2.2277761 
       11.91   0.24149384    2.2778397    2.0723082 
       11.92   0.17794081    2.2560271    1.9568715 
       11.93   0.12062521    2.2065566    1.9436979 
       11.94  0.069825364    2.1475384    1.9767677 
       11.95  0.026748524    2.1223624    1.9214754 
       11.96  -0.01175958    2.1150195    1.8204735 
       11.97 -0.040922279    2.1251919    1.6827523 
       11.98 -0.065720788     2.140991    1.5443215 
       11.99  -0.08377082    2.1234825    1.5310037 
          12 -0.098534171    2.0763308    1.6271006 
       12.01  -0.10707483    2.0333572     1.725044 
       12.02  -0.10750803    2.0353364    1.6965054 
       12.03  -0.10386416    2.0661743    1.5875937 
       12.04 -0.094045287    2.0864516    1.5266682 
       12.05 -0.081140522    2.1215722    1.4397453 
       12.06 -0.062990008    2.1624614    1.3615483 
       12.07 -0.042884365    2.1701967     1.409403 
       12.08 -0.019555363    2.1494891    1.5669966 
       12.09 0.0060623238     2.143679    1.6940035 
        12.1  0.034866537    2.1663639    1.7447689 
       12.11  0.067628515    2.1808115    1.8300227 
       12.12   0.10110886    2.1717101    1.9903997 
       12.13   0.13769947    2.1841438    2.0895781 
       12.14   0.17562871    2.2230459    2.1157147 
       12.15   0.21551891    2.2178737    2.2900062 
       12.16   0.25566286     2.165509    2.6158944 
       12.17   0.29689295    2.1009509    2.9681953 
       12.18   0.33981227    2.0969014    3.1033364 
       12.19   0.38621756    2.2124779    2.8386555 
        12.2   0.43266282    2.3464575    2.4912986 
       12.21   0.47718669    2.4331661    2.2783133 
       12.22   0.51308102    2.4926664    2.1446976 
       12.23   0.54021027    2.5192695    2.1131703 
       12.24   0.55530251    2.4841429    2.2644458 
       12.25   0.56065336    2.4318647    2.4567971 
       12.26   0.55858996    2.4056803    2.5515562 
       12.27   0.54984822    2.3900763    2.5883552 
       12.28   0.53878141    2.3913797    2.5493429 
       12.29   0.52280512    2.4084154    2.4375525 
        12.3   0.50384512    2.4172212    2.3349484 
       12.31   0.48423483    2.4123965    2.2685568 
       12.32   0.46069935    2.3890761    2.2537622 
       12.33   0.44049266    2.3514604    2.2850998 
       12.34   0.41920798    2.3381102    2.2400919 
       12.35    0.3964937    2.3624125    2.0821718 
       12.36   0.37477097    2.3785873    1.9599377 
       12.37   0.35035938    2.3608467    1.9535852 
       12.38   0.32550371    2.3066622    2.0712352 
       12.39     0.301191    2.2405219    2.2299847 
        12.4   0.27786682    2.1986074    2.3092779 
       12.41   0.25794447    2.1890006    2.2804236 
       12.42   0.24084405    2.1993355    2.1816687 
       12.43   0.22418453    2.2019063    2.0990236 
       12.44   0.20969266    2.1857352    2.0694423 
       12.45    0.1987131    2.2110693    1.9202654 
       12.46   0.18999861    2.2487797    1.7427254 
       12.47   0.17925834    2.2555006    1.6676375 
       12.48   0.16947378    2.2336795     1.694237 
       12.49   0.16085318    2.1797726    1.8294543 
        12.5   0.15388133    2.0832542    2.0919411 
       12.51   0.15179935    2.0077033    2.2796342 
       12.52   0.15471996    2.0548229    2.0875464 
       12.53    0.1663866    2.1616811    1.7160264 
       12.54   0.18292641    2.2390549    1.4435219 
       12.55   0.20223652    2.2836831    1.2933089 
       12.56   0.22228905    2.2935058    1.2732471 
       12.57   0.24591392    2.2781772    1.3540912 
       12.58   0.27071569    2.2678809    1.4378833 
       12.59   0.29721133    2.2837442    1.4581163 
        12.6   0.32474591    2.3123928    1.4520139 
       12.61   0.35545561    2.3276885    1.4989262 
       12.62   0.38476461    2.3217441    1.6162212 
       12.63   0.41769815    2.3040772    1.7767156 
       12.64   0.45186236    2.3001207    1.8970897 
       12.65   0.49012037    2.3219333    1.9401103 
       12.66   0.52932097    2.3564526    1.9385705 
       12.67   0.57231482    2.3963737    1.9184481 
       12.68   0.61548367     2.435199    1.8983334 
       12.69   0.65841823    2.4626458    1.9101812 
        12.7   0.69869038    2.4803242    1.9465297 
       12.71   0.73513104    2.5001609    1.9694986 
       12.72    0.7667774    2.5199479     1.981954 
       12.73   0.79373198    2.5324192    2.0024081 
       12.74   0.81405222    2.5510775     1.988701 
       12.75   0.82384185    2.5798269    1.9276736 
       12.76   0.82241983    2.5856998     1.918044 
       12.77   0.81030419    2.5368165    2.0522041 
       12.78   0.78638974    2.4549949    2.2562066 
       12.79   0.75149107    2.4163551    2.2987813 
        12.8   0.70562794    2.4352156    2.1344247 
       12.81   0.64757041     2.461674    1.9140753 
       12.82   0.57731276    2.4607572    1.7527592 
       12.83   0.49567438    2.4145467    1.7145247 
       12.84    0.4069351    2.3181561    1.8240246 
       12.85   0.32197601    2.2006528    2.0084049 
       12.86   0.24715458    2.1179714    2.1084826 
       12.87   0.18455113    2.0821449     2.087814 
       12.88   0.13477163    2.0772674    1.9931777 
       12.89  0.094358463     2.095653    1.8461388 
        12.9  0.061820005    2.1173581    1.7054196 
       12.91  0.039009416    2.1285588    1.6154127 
       12.92  0.020424399    2.1320731    1.5639992 
       12.93 0.0066088788    2.1288245     1.551419 
       12.94 0.0012534939    2.0965783    1.6473563 
       12.95 -0.0024597653    2.0276018    1.8634532 
       12.96   0.00110419    1.9688265    2.0588352 
       12.97  0.011363866     1.979755    2.0504235 
       12.98  0.029634817    2.0460287      1.88164 
       12.99  0.052376819    2.1070329    1.7341924 
          13  0.079191084    2.1373837    1.6900287 
       13.01   0.10988913     2.150283    1.7121315 
       13.02   0.14168094    2.1676607    1.7312339 
       13.03   0.17535386    2.1880864    1.7493066 
       13.04   0.21307209    2.1890462    1.8309885 
       13.05   0.25006348    2.1664744    1.9759441 
       13.06   0.29108441    2.1728185    2.0286376 
       13.07    0.3320527    2.2318212    1.9150337 
       13.08   0.37341003    2.2907007    1.7949595 
       13.09   0.41387551    2.3508643    1.6717706 
        13.1   0.44995454    2.3955328    1.5953326 
       13.11   0.48284148    2.3948617    1.6515561 
       13.12   0.50805305    2.4221383    1.6193014 
       13.13   0.52675382    2.4736809    1.5103922 
       13.14   0.53987853    2.4865655    1.5151017 
       13.15   0.54629244    2.4599775    1.6377549 
       13.16   0.54692926    2.4366137     1.752069 
       13.17   0.54283971    2.4062544    1.8852699 
       13.18   0.53227669    2.3458363    2.0989815 
       13.19   0.52069474    2.2939966    2.2791741 
        13.2   0.50604488    2.2671116    2.3676959 
       13.21   0.49142783    2.2532699    2.3975538 
       13.22   0.47594414    2.2716195    2.3093218 
       13.23   0.45529883    2.3150105    2.1223551 
       13.24   0.43024433    2.3484383    1.9496377 
       13.25   0.39876656    2.3576395    1.8404664 
       13.26   0.35848296    2.3381029    1.8105039 
       13.27   0.30686729    2.2916259    1.8508042 
       13.28   0.24761389    2.2312114    1.9218971 
       13.29   0.17804914     2.170113    1.9758188 
        13.3   0.10106121    2.1217187    1.9754736 
       13.31  0.018041606    2.0628201    1.9970335 
       13.32 -0.061465497    1.9773412    2.1051927 
       13.33  -0.13397058     1.915198    2.1553663 
       13.34  -0.19327217    1.9118514    2.0478744 
       13.35  -0.24099192      1.93123    1.8976439 
       13.36  -0.27432174    1.9243695    1.8674519 
       13.37  -0.29338624    1.8815718    1.9889787 
       13.38  -0.30195593    1.8543041    2.0951275 
       13.39  -0.29782398    1.8675659    2.1051832 
        13.4  -0.28605442    1.8826014    2.1289776 
       13.41  -0.26618369    1.8851289     2.209142 
       13.42  -0.24215835    1.8960917    2.2730428 
       13.43  -0.21239388    1.9238453     2.293551 
       13.44  -0.17841247    1.9519214    2.3186157 
       13.45  -0.14338138    1.9675149    2.3827106 
       13.46  -0.10527382    1.9784877    2.4591292 
       13.47  -0.06552492    2.0271944    2.4135039 
       13.48 -0.024752969    2.0958365    2.3019076 
       13.49  0.015491071    2.1291275    2.2969252 
        13.5  0.053139717    2.1193783    2.4203095 
       13.51  0.089108198    2.0936995    2.5820249 
       13.52   0.12488551    2.0910211    2.6536844 
       13.53    0.1616702    2.1435256    2.5335216 
       13.54   0.19939961     2.264643    2.1901496 
       13.55    0.2347009     2.396943    1.8179431 
       13.56   0.26434423    2.4502224    1.7100489 
       13.57   0.28695665    2.3965263    1.9523736 
       13.58   0.30312019    2.3299847    2.2388689 
       13.59   0.31593175     2.383968     2.151202 
        13.6   0.32377687    2.4467607     2.033282 
       13.61    0.3265047     2.414115    2.2144345 
       13.62   0.32287381    2.3223071    2.5757758 
       13.63   0.31795205    2.2324622    2.9137672 
       13.64   0.31224027    2.1866341     3.078892 
       13.65   0.30558015    2.1960921    3.0291698 
       13.66   0.30077556    2.2427686    2.8315863 
       13.67   0.29461334    2.2957261    2.5937978 
       13.68   0.28718377    2.3352232    2.3918947 
       13.69   0.27592224    2.3514737    2.2646021 
        13.7   0.26106953    2.3221618    2.2831239 
       13.71   0.24361221    2.2821443    2.3361849 
       13.72   0.22488124    2.2844057    2.2581218 
       13.73   0.20287783    2.2943554    2.1527593 
       13.74   0.17658278    2.2670981    2.1590793 
       13.75   0.14765972    2.2155689    2.2385328 
       13.76   0.11516229    2.1684047    2.2963588 
       13.77  0.083387127    2.1417125    2.2817855 
       13.78  0.052616919    2.1310159    2.2059672 
       13.79  0.021800929    2.1291721    2.0920304 
        13.8 -0.010505542    2.1385129    1.9384656 
       13.81 -0.040762919    2.1440644    1.8032802 
       13.82 -0.070263124    2.1189692    1.7721407 
       13.83 -0.098524697    2.0635772    1.8437805 
       13.84  -0.12504994      2.00448    1.9326656 
       13.85  -0.14728371    1.9694553    1.9519657 
       13.86  -0.16471562    1.9774275    1.8464989 
       13.87  -0.17359324    2.0098398    1.6833985 
       13.88  -0.17727972    2.0315236    1.5725193 
       13.89  -0.17447017    2.0360781    1.5394952 
        13.9  -0.16420752    2.0338958    1.5544934 
       13.91  -0.14446433    2.0260736     1.613124 
       13.92  -0.11645299    2.0157918    1.7000443 
       13.93 -0.077139854     2.025579    1.7478662 
       13.94 -0.030265341    2.0722308    1.7025167 
       13.95  0.025962022    2.1341205    1.6321489 
       13.96  0.092960929    2.1887634    1.6063637 
       13.97   0.16283314    2.2391386     1.607403 
       13.98   0.23113575    2.2865187    1.6243589 
       13.99   0.29569637     2.318742    1.6866891 
          14   0.35246478    2.3272109    1.8089825 
       14.01   0.40172602    2.3263854    1.9411999 
       14.02    0.4441323    2.3425312    2.0018745 
       14.03   0.47815678    2.3716339     2.001974 
       14.04    0.5059571    2.3842228    2.0353021 
       14.05   0.52935657     2.360316    2.1650823 
       14.06   0.54524631    2.3054376    2.3676975 
       14.07   0.55764206    2.2537791    2.5396445 
       14.08   0.56750477    2.2422237     2.568682 
       14.09   0.57513394    2.2854185    2.4154359 
        14.1   0.58362704    2.3512609    2.1890768 
       14.11   0.58966143    2.3729077    2.0933421 
       14.12    0.5913986    2.3398389    2.1619617 
       14.13   0.59124825    2.3038429    2.2432733 
       14.14   0.58707503    2.3043484    2.2144297 
       14.15   0.58140803    2.3182009    2.1414653 
       14.16   0.57457418    2.3259268    2.0815221 
       14.17     0.563747    2.3312498     2.021603 
       14.18   0.54984839    2.3356795    1.9578512 
       14.19   0.53304008    2.3423352    1.8824492 
        14.2    0.5119499    2.3318112    1.8512215 
       14.21   0.48738387    2.2861001    1.9137173 
       14.22   0.46058085    2.2630996    1.9026615 
[...]
   27270   0.56848189    2.4533921    2.1032738   0.54706516 
   27280   0.58632252    2.4530161    2.1491088   0.54744004 
   27290   0.59770458    2.4539009    2.1770023   0.54779292 
   27300   0.60206418    2.4751841    2.1265837   0.54812091 
   27310   0.59929125     2.481774    2.1013746   0.54842938 
   27320   0.58687712    2.4714881      2.10509   0.54872181 
   27330   0.56809211    2.4645622    2.0804946   0.54899843 
   27340   0.53982785    2.4569327    2.0380087   0.54926247 
   27350   0.50388371    2.4324308    2.0312903   0.54951893 
   27360   0.46067378    2.3789908    2.0983584   0.54976832 
   27370   0.41218812    2.3033099    2.2184151   0.55000204 
   27380   0.36075868    2.2355599    2.2967351   0.55020541 
   27390   0.30751236    2.2095453    2.2283375   0.55036945 
   27400   0.25455016    2.2246502     2.022167   0.55050328 
   27410   0.20152266    2.2368774    1.8233536   0.55063243 
   27420   0.15001216    2.2237026    1.7171433   0.55078231 
   27430   0.10020056    2.1730182    1.7497908   0.55096647 
   27440  0.057988071    2.0855636     1.926228   0.55118046 
   27450  0.024267058     1.987742    2.1574659   0.55140192 
   27460 -0.0010855401     1.934179    2.2617337    0.5516024 
   27470 -0.017359021    1.9664032    2.1035775   0.55176982 
   27480 -0.026854465    2.0484804     1.792866   0.55192387 
   27490 -0.028687466    2.1100524    1.5567865   0.55210287 
   27500 -0.025364055    2.1380961    1.4429658   0.55233758 
   27510 -0.022631197     2.157859    1.3714866   0.55264402 
   27520 -0.014745428    2.1814571    1.3103525   0.55303188 
   27530 -0.0046554287    2.2071874    1.2611507   0.55350928 
   27540 0.0058683744    2.2207238    1.2665887   0.55408226 
   27550  0.017743061    2.2038388    1.3825503   0.55474948 
   27560  0.028447708    2.1705182    1.5601712   0.55549631 
   27570   0.04280715    2.1482789    1.7163582   0.55630045 
   27580  0.061079569    2.1201806    1.8964891   0.55714064 
   27590  0.080003062    2.0975272     2.054457   0.55799354 
   27600   0.10263294     2.133601    2.0256005    0.5588404 
   27610   0.12889946    2.2094336    1.8715149   0.55968417 
   27620   0.15327542    2.2667698    1.7755149   0.56054304 
   27630   0.17540864    2.2887701     1.795311   0.56142912 
   27640   0.19465227     2.288455    1.8880377   0.56234034 
   27650   0.21092979    2.2814686    2.0001277   0.56326506 
   27660   0.22475547    2.2791257    2.0935898   0.56418887 
   27670   0.23539926    2.2822753     2.163439   0.56509949 
   27680   0.24271959    2.2937161    2.2018688   0.56598775 
   27690   0.25021548    2.3025211    2.2486158     0.566848 
   27700   0.25638787    2.2835788    2.3789454   0.56767306 
   27710   0.26139613    2.2383407    2.5820214   0.56844581 
   27720   0.26642723    2.2061614    2.7250349   0.56914081 
   27730   0.27240363    2.2358794    2.6508709   0.56974099 
   27740   0.27747112    2.3013642      2.44498   0.57025501 
   27750   0.27932697    2.3519116    2.2795656   0.57070808 
   27760   0.28035229    2.3631351    2.2467886   0.57112108 
   27770   0.27535525    2.3411332    2.3225101   0.57149858 
   27780   0.26724507    2.3349181    2.3534143   0.57183271 
   27790    0.2569778    2.3086261    2.4457702   0.57211772 
   27800   0.24518622    2.2563082    2.6109275   0.57234131 
   27810   0.23562391    2.2323312    2.6726294   0.57248381 
   27820   0.22428572    2.2515848    2.5753236   0.57253783 
   27830    0.2115657    2.2745515    2.4487642    0.5725147 
   27840   0.19908366    2.2812235    2.3669895   0.57243021 
   27850   0.18593625    2.2959741    2.2602201   0.57229622 
   27860   0.16873258     2.306833    2.1635551    0.5721263 
   27870   0.14676244     2.301928     2.113324    0.5719329 
   27880   0.12597652     2.283355     2.108753   0.57172266 
   27890    0.1030469    2.2562395    2.1287277   0.57149645 
   27900  0.077929835    2.2275508    2.1510357   0.57125197 
   27910  0.054505185    2.1905221    2.2009568   0.57098586 
   27920  0.032148428    2.1488228    2.2658177   0.57069166 
   27930  0.010952331    2.1268016    2.2682773   0.57036172 
   27940 -0.0089208533     2.137382    2.1677255   0.56999631 
   27950 -0.026851655    2.1550265    2.0466651    0.5696076 
   27960 -0.045097279    2.1699092    1.9394028    0.5692113 
   27970 -0.062624075    2.1717266    1.8855425   0.56882114 
   27980 -0.078583452    2.1333095     1.971973   0.56844314 
   27990  -0.09244593    2.0606431    2.1740344   0.56806616 
   28000  -0.10311014    1.9979797    2.3436278   0.56766525 
   28010  -0.10701787    1.9806306    2.3663031   0.56721912 
   28020    -0.105183    2.0277874    2.1855708    0.5667256 
   28030 -0.094257758    2.0920415    1.9648369   0.56620651 
   28040 -0.077240112    2.1356169    1.8304852   0.56568958 
   28050 -0.051326557    2.1684414    1.7613143   0.56519291 
   28060 -0.017356268    2.1986542    1.7322464    0.5647258 
   28070  0.025181062    2.2178868     1.768097   0.56429169 
   28080  0.072835121    2.2318132    1.8430472   0.56388612 
   28090   0.12772161     2.257941    1.8991064   0.56349985 
   28100   0.18741364    2.2922871    1.9398176   0.56312536 
   28110   0.24967684    2.3228467    1.9946312   0.56275683 
   28120   0.31292304    2.3595897    2.0281883   0.56238741 
   28130   0.37120275    2.4001974     2.041184   0.56201269 
   28140   0.42563293    2.4183361    2.1170544   0.56162982 
   28150    0.4720272    2.4054769    2.2748932   0.56122843 
   28160   0.51133792    2.3884213    2.4267668   0.56078863 
   28170   0.54526588    2.3997198    2.4681223    0.5602914 
   28180   0.57261231    2.4467188    2.3742433   0.55973163 
   28190   0.59335645    2.4903169    2.2666085   0.55912009 
   28200   0.60513016    2.5156646    2.1905238   0.55847047 
   28210   0.60764002    2.5395919      2.09689   0.55779345 
   28220   0.60205451    2.5597444    1.9985326   0.55710125 
   28230   0.58411719    2.5438664     1.992515   0.55640559 
   28240   0.55641973     2.487847    2.0929284   0.55570698 
   28250   0.52092498    2.4326168    2.1719459   0.55499376 
   28260   0.47894285    2.3956618     2.172213   0.55425608 
   28270   0.43181847    2.3677461    2.1217932   0.55349351 
   28280    0.3810374    2.3463726     2.032604   0.55271262 
   28290    0.3272934     2.327918    1.9212331   0.55192502 
   28300   0.27180813    2.3061442    1.8143589   0.55114513 
   28310   0.21561433    2.2738961     1.741225   0.55038676 
   28320   0.16065989    2.2241771    1.7285289   0.54965928 
   28330   0.10934761    2.1611461    1.7640303   0.54896448 
   28340  0.062756969     2.124564    1.7254891   0.54829913 
   28350  0.022167548    2.1356958    1.5517443   0.54766916 
   28360  -0.01281836    2.1491814    1.3851859   0.54709571 
   28370 -0.041152623    2.1430412     1.301171   0.54660007 
   28380 -0.063640625    2.1242129    1.2813909   0.54619378 
   28390 -0.080038738    2.0904519    1.3304526   0.54587951 
   28400 -0.090855922    2.0470542    1.4260386   0.54565122 
   28410 -0.095597567    2.0171735    1.4924959   0.54549734 
   28420 -0.094065835    2.0200825    1.4693465   0.54541005 
   28430 -0.087770898    2.0455946    1.3888593   0.54539225 
   28440 -0.074778842    2.0735399     1.322102   0.54545407 
   28450 -0.057986722    2.0855599    1.3292054   0.54560408 
   28460 -0.038890784    2.0684776      1.45025   0.54584129 
   28470  -0.01764726     2.045099    1.6123813   0.54615098 
   28480 0.0053204404     2.041958    1.7267748   0.54651315 
   28490  0.031999552    2.0579049    1.7904398   0.54691292 
   28500  0.059112946    2.0827143    1.8253731   0.54734191 
   28510  0.087340402    2.1003299    1.8756902   0.54779517 
   28520   0.11525144    2.1215883    1.9026096   0.54826669 
   28530    0.1424844    2.1747426    1.8213364   0.54875413 
   28540   0.16856064    2.2363167    1.7093995   0.54926744 
   28550   0.19169879    2.2524656    1.7360726   0.54981968 
   28560   0.21095466    2.2184011    1.9176389   0.55040754 
   28570    0.2303796     2.177395    2.1217656    0.5510088 
   28580   0.25020629    2.1675058     2.223294   0.55159793 
   28590   0.27151902    2.1908394    2.2080471   0.55216148 
   28600   0.29081343    2.2374684    2.0998903   0.55270095 
   28610   0.30999902    2.3112588    1.8971037   0.55323072 
   28620   0.32643723    2.3806222    1.7065023   0.55377643 
   28630   0.33940103    2.3976309    1.6846567   0.55436167 
   28640   0.34783726    2.3650013    1.8246335   0.55498987 
   28650   0.35324984    2.3361869    1.9596327   0.55564485 
   28660   0.35577645     2.341982     1.989597   0.55631015 
   28670    0.3535736    2.3453657    2.0234889    0.5569806 
   28680   0.34927569    2.3101727    2.1752642   0.55765044 
   28690   0.34452425    2.2505351    2.3990947   0.55830007 
   28700   0.33894934    2.2382118    2.4686685   0.55890239 
   28710   0.33377711    2.2743321    2.3791631   0.55944787 
   28720   0.32663461    2.2798103    2.3721969   0.55994493 
   28730   0.31895335    2.2503965    2.4649958     0.560394 
   28740   0.31003704    2.2380114    2.4943561   0.56078437 
   28750   0.29732615    2.2675492    2.3802331   0.56111266 
   28760   0.28358883    2.2893587      2.28395    0.5613915 
   28770   0.26773248    2.2591773    2.3468567   0.56163161 
   28780   0.24982875    2.2197798     2.439528   0.56182594 
   28790   0.22748039    2.2106057    2.4354097   0.56196356 
   28800   0.20302225     2.201985     2.423171   0.56204308 
   28810   0.17629293    2.2070061    2.3633942   0.56206648 
   28820   0.14711447    2.1900452    2.3626935   0.56203969 
   28830   0.11503831    2.1608027    2.3869428   0.56196291 
   28840  0.080957073    2.1508185    2.3346774   0.56183373 
   28850  0.043252732    2.1513064    2.2293506   0.56165836 
   28860 0.0042986265    2.1466528    2.1242201   0.56144969 
   28870 -0.036888216    2.1376077    2.0185444   0.56122141 
   28880 -0.080617596    2.1253873    1.9097949    0.5609874 
   28890  -0.12475261    2.1119379    1.7972283   0.56076201 
   28900  -0.16797714    2.0969718     1.688355   0.56056011 
   28910    -0.208474    2.0706166    1.6215664   0.56039596 
   28920  -0.24791914    2.0267005    1.6181162    0.5602786 
   28930  -0.28322448     1.981374    1.6318411   0.56020943 
   28940   -0.3108151    1.9692164    1.5588196   0.56018829 
   28950  -0.33284375    1.9946471    1.3841298   0.56022559 
   28960  -0.35017635    2.0235933    1.2165023   0.56034389 
   28970  -0.36239852     2.034486    1.1299668    0.5605656 
   28980  -0.37020228    2.0227557     1.141934   0.56090329 
   28990  -0.36996008    2.0017712    1.2151134   0.56135731 
   29000  -0.36508596    1.9936021    1.2767226   0.56192041 
   29010  -0.35021025    1.9940301      1.34512   0.56258562 
   29020  -0.32710577    1.9978506     1.436335   0.56334519 
   29030  -0.29604012      2.00488    1.5540368    0.5641884 
   29040  -0.25193291     2.010462    1.7207883   0.56510049 
   29050  -0.19593161    2.0146905    1.9350585   0.56606045 
   29060  -0.13006667    2.0094718     2.212768   0.56704027 
   29070 -0.051527184    2.0112702    2.4934787   0.56800389 
   29080  0.034365576    2.0490876    2.6669573   0.56891507 
   29090   0.12442465     2.116087    2.7389022   0.56974982 
   29100   0.21287256    2.1750565    2.8083936   0.57049618 
   29110   0.28999119    2.2127063    2.8969332   0.57114336 
   29120    0.3566096    2.2547324    2.9211796   0.57167921 
   29130    0.4106481    2.3130269    2.8432036   0.57209927 
   29140   0.45520537    2.3949002    2.6530147   0.57241255 
   29150   0.48858688    2.4649737    2.4709357   0.57264149 
   29160   0.50983329    2.4920896    2.4033427   0.57280793 
   29170    0.5219287    2.4874749    2.4252423   0.57292041 
   29180   0.52467263    2.4594966    2.5138092   0.57297556 
   29190   0.51964532    2.3989884     2.699621   0.57296043 
   29200   0.51188941    2.3169464    2.9480175   0.57284969 
   29210    0.5003994    2.2681046    3.0762295   0.57261116 
   29220   0.48611409    2.2854731     2.974563   0.57222738 
   29230   0.47091337    2.3283077    2.7735213   0.57170834 
   29240   0.45221066    2.3433921    2.6425459   0.57107709 
   29250   0.43094246    2.3238632    2.6059343   0.57034944 
   29260   0.40577943    2.3004434    2.5608605   0.56953027 
   29270   0.37925151    2.3136474    2.3809874   0.56862588 
   29280   0.35060483    2.3507276    2.1123747   0.56765869 
   29290   0.31820431    2.3738695    1.8817189   0.56666207 
   29300   0.28154048    2.3899387    1.6778096   0.56566671 
   29310   0.24003782    2.3804168    1.5643704   0.56469887 
   29320   0.19411127    2.3296703    1.5942841   0.56377335 
   29330   0.14674794    2.2434429    1.7502427   0.56288685 
   29340  0.098186865    2.1487493    1.9387507    0.5620202 
   29350   0.05450618    2.0886058    2.0215189   0.56115005 
   29360  0.014328629    2.0988587    1.8830652   0.56026678 
   29370 -0.021626272    2.1454258    1.6375191   0.55938723 
   29380 -0.054145959    2.1553511    1.5208084   0.55854123 
   29390 -0.082685132    2.1179838    1.5735373   0.55774432 
   29400  -0.10903944    2.0670349    1.6868419   0.55699141 
   29410  -0.12975189     2.037904    1.7480113   0.55626921 
   29420  -0.14415781    2.0408913    1.7217303    0.5555703 
   29430   -0.1558332    2.0556221    1.6674844   0.55489775 
   29440  -0.15953873    2.0589424    1.6657483   0.55425811 
   29450  -0.15973113    2.0420953    1.7403362   0.55365179 
   29460  -0.15249493      2.00817    1.8835438   0.55306932 
   29470   -0.1378385    1.9735632    2.0384538   0.55249255 
   29480  -0.11298644    1.9749874     2.089887   0.55190219 
   29490 -0.076566344    2.0423625    1.9509736   0.55129226 
   29500 -0.024081941    2.1427596    1.7385313   0.55067942 
   29510  0.040652463    2.2293936    1.6040018   0.55009013 
   29520   0.11564218    2.2932685    1.5797715   0.54954226 
   29530   0.19816215    2.3360882    1.6545111   0.54903965 
   29540   0.28234202    2.3566336    1.8136823   0.54857306 
   29550   0.36198053    2.3637605    2.0067338   0.54812238 
   29560   0.43149548    2.3779824    2.1489965   0.54766306 
   29570   0.49113573    2.4103539    2.1964997   0.54717649 
   29580   0.53987122    2.4491629    2.1794859    0.5466555 
   29590   0.57545433    2.4835157    2.1315187    0.5461014 
   29600   0.60068386    2.5131648     2.064147   0.54551991 
   29610   0.61183684    2.5293561    2.0081209   0.54491927 
   29620   0.61298419     2.515711    2.0226748    0.5443059 
   29630   0.60528062    2.4780376     2.093378   0.54367784 
   29640   0.58936109    2.4493823    2.1206325    0.5430266 
   29650   0.57044719    2.4505011    2.0468544    0.5423489 
   29660   0.54640474    2.4612232    1.9319472    0.5416535 
   29670    0.5176087    2.4494895    1.8762451   0.54095423 
   29680   0.48718995    2.4113389    1.8979372   0.54025831 
   29690   0.45313697    2.3671777    1.9351968    0.5395637 
   29700   0.41813081    2.3418136    1.9191601   0.53886627 
   29710   0.38508005    2.3338375    1.8608334   0.53816798 
   29720   0.35078301    2.3186918    1.8335361   0.53747581 
   29730   0.31748507    2.2799105    1.8914936    0.5367929 
   29740    0.2868631     2.211982    2.0519373   0.53611144 
   29750   0.25824816    2.1264808    2.2728604   0.53541058 
   29760   0.23470295    2.0596296    2.4397611   0.53466207 
   29770   0.21662512    2.0324213    2.4810836   0.53384389 
   29780   0.20376333    2.0380189    2.4122181   0.53294937 
   29790   0.19769183    2.0651996    2.2708925   0.53198632 
   29800   0.19608013    2.0894657    2.1319041   0.53097189 
   29810   0.19969961    2.1065176    2.0135149   0.52992386 
   29820   0.20636938    2.1252693    1.8919358    0.5288581 
   29830   0.21830775    2.1270486    1.8262768   0.52778991 
   29840   0.23309607    2.1241503    1.7791362   0.52672859 
   29850   0.25169804    2.1568035     1.637905   0.52568204 
   29860   0.27361662    2.2184893    1.4266055   0.52466907 
   29870   0.30079339    2.2744424    1.2539083   0.52371698 
   29880   0.32982028      2.31253    1.1554687   0.52284921 
   29890   0.35801154     2.330315    1.1354486   0.52207988 
   29900   0.38581105    2.3339403    1.1737504   0.52141316 
   29910   0.41330462    2.3348026    1.2340283   0.52084566 
   29920   0.43858176    2.3358448    1.3029448   0.52037088 
   29930   0.46291033    2.3229549    1.4189236   0.51998039 
   29940   0.48732444    2.2927392    1.5877361    0.5196598 
   29950   0.51499386    2.2714596    1.7312249   0.51938848 
   29960   0.54426826    2.2900285    1.7558235   0.51914914 
   29970   0.57674935     2.352212    1.6561229   0.51893901 
   29980   0.61273635    2.4212321    1.5461561   0.51877041 
   29990   0.65338493    2.4573021    1.5486546   0.51865713 
   30000   0.69452086    2.4456039    1.7030903   0.51859928 
Loop time of 5.2068 on 8 procs for 30000 steps with 125 atoms

Performance: 497810.648 tau/day, 5761.697 timesteps/s
108.0% CPU use with 1 MPI tasks x 8 OpenMP threads

MPI task timing breakdown:
Section |  min time  |  avg time  |  max time  |%varavg| %total
---------------------------------------------------------------
Pair    | 1.8049     | 1.8049     | 1.8049     |   0.0 | 34.66
Neigh   | 0.0091298  | 0.0091298  | 0.0091298  |   0.0 |  0.18
Comm    | 0.10874    | 0.10874    | 0.10874    |   0.0 |  2.09
Output  | 0.055271   | 0.055271   | 0.055271   |   0.0 |  1.06
Modify  | 3.2139     | 3.2139     | 3.2139     |   0.0 | 61.73
Other   |            | 0.01483    |            |       |  0.28

Nlocal:        125.000 ave         125 max         125 min
Histogram: 1 0 0 0 0 0 0 0 0 0
Nghost:        1679.00 ave        1679 max        1679 min
Histogram: 1 0 0 0 0 0 0 0 0 0
Neighs:        12509.0 ave       12509 max       12509 min
Histogram: 1 0 0 0 0 0 0 0 0 0

Total # of neighbors = 12509
Ave neighs/atom = 100.07200
Neighbor list builds = 145
Dangerous builds = 0

variable avedens equal f_aves[1]
variable avetemp equal f_aves[2]
variable avepress equal f_aves[3]
variable errdens equal sqrt(f_aves[4]-f_aves[1]*f_aves[1])
variable errtemp equal sqrt(f_aves[5]-f_aves[2]*f_aves[2])
variable errpress equal sqrt(f_aves[6]-f_aves[3]*f_aves[3])

print "Averages"
Averages
print "--------"
--------
print "Density: ${avedens}"
Density: 0.54257509400315
print "Stderr: ${errdens}"
Stderr: 0.0220738409814496
print "Temperature: ${avetemp}"
Temperature: 2.24726839011215
print "Stderr: ${errtemp}"
Stderr: 0.160019927402987
print "Pressure: ${avepress}"
Pressure: 1.99342013693524
print "Stderr: ${errpress}"
Stderr: 0.43205607882642
clear # Clear any previous runs
  using 8 OpenMP thread(s) per MPI task

package omp 8 # For parallelisation.
using multi-threaded neighbor list subroutines


### DEFINE SIMULATION BOX GEOMETRY ###
lattice sc 0.8
Lattice spacing in x,y,z = 1.0772173 1.0772173 1.0772173
region box block 0 5 0 5 0 5
create_box 1 box
Created orthogonal box = (0.0000000 0.0000000 0.0000000) to (5.3860867 5.3860867 5.3860867)
  1 by 1 by 1 MPI processor grid
create_atoms 1 box
Created 125 atoms
  create_atoms CPU = 0.001 seconds

### DEFINE PHYSICAL PROPERTIES OF ATOMS ###
mass 1 1.0
pair_style lj/cut/omp 2.5
pair_coeff 1 1 1.0 1.0
neighbor 2.0 bin

### SPECIFY THE REQUIRED THERMODYNAMIC STATE ###
variable T equal 2.25
variable p equal 3
variable timestep equal 0.001

log ${T}_${p}_NpT.log # specify the log file name. Can overwrite if desired
log 2.25_${p}_NpT.log 
log 2.25_3_NpT.log 
