
### SPECIFY THE NUMBER OF PRODUCTION STEPS ###
variable Nprod equal 30000

### ASSIGN ATOMIC VELOCITIES ###
velocity all create ${T} 12345 dist gaussian rot yes mom yes
velocity all create 2.25 12345 dist gaussian rot yes mom yes

### SPECIFY ENSEMBLE ###
timestep ${timestep}
timestep 0.001
fix nve all nve

### THERMODYNAMIC OUTPUT CONTROL ###
thermo_style custom time etotal temp press
thermo 10

### RECORD TRAJECTORY ###
dump traj all custom 1000 traj.dump id x y z

### SPECIFY TIMESTEP ###

### RUN SIMULATION TO MELT CRYSTAL ###
run 10000
Last active /omp style is pair_style lj/cut/omp
Neighbor list info ...
  update every 1 steps, delay 10 steps, check yes
  max neighbors/atom: 2000, page size: 100000
  master list distance cutoff = 4.5
  ghost atom cutoff = 4.5
  binsize = 2.25, bins = 3 3 3
  1 neighbor lists, perpetual/occasional/extra = 1 0 0
  (1) pair lj/cut/omp, perpetual
      attributes: half, newton on, omp
      pair build: half/bin/atomonly/newton/omp
      stencil: half/bin/3d/newton
      bin: standard
Per MPI rank memory allocation (min/avg/max) = 10.63 | 10.63 | 10.63 Mbytes
Time TotEng Temp Press 
           0   -1.9167711         2.25    1.4903632 
        0.01   -1.9167862    2.1972612    1.7833958 
        0.02   -1.9140669     2.031872    2.6881538 
        0.03   -1.9038486    1.7532389    4.1789485 
        0.04   -1.8946977    1.4230332    5.9083526 
        0.05   -1.8943436    1.1929715    7.1304825 
        0.06   -1.8929868     1.155876    7.4138292 
        0.07   -1.8921696    1.2428431    7.0609297 
        0.08    -1.891814    1.3504041    6.5608955 
        0.09   -1.8902323    1.4317121    6.1587214 
         0.1   -1.8882598    1.4920423     5.851489 
        0.11   -1.8872064    1.5459547    5.5794632 
        0.12   -1.8877241    1.6022791    5.3008183 
        0.13    -1.887204    1.6646605    4.9993703 
        0.14   -1.8852497    1.7293022    4.6885387 
        0.15    -1.884331     1.790423    4.3865709 
        0.16   -1.8838012    1.8502249    4.0825325 
        0.17   -1.8839436    1.9149729    3.7500379 
        0.18   -1.8838396    1.9734165    3.4465808 
        0.19   -1.8828013    2.0023085    3.2843736 
         0.2   -1.8833115    1.9963832      3.28942 
        0.21   -1.8825208    1.9700932    3.4049755 
        0.22   -1.8826556    1.9334745    3.5816476 
        0.23   -1.8833089    1.8902068    3.8008657 
        0.24   -1.8842172    1.8462964    4.0328547 
        0.25   -1.8835632    1.8100753    4.2382068 
        0.26   -1.8833115    1.7839054    4.3949787 
        0.27   -1.8847149    1.7660886    4.4987208 
        0.28   -1.8847153    1.7835362    4.4333025 
        0.29   -1.8843774    1.8328781    4.2189345 
         0.3   -1.8847932    1.8633467    4.0898535 
        0.31   -1.8871249    1.8477619    4.1736327 
        0.32   -1.8873221    1.8077493    4.3802046 
        0.33   -1.8847341     1.799389    4.4622829 
        0.34   -1.8848042    1.8082379     4.477547 
        0.35   -1.8843862    1.7753344    4.6899103 
        0.36   -1.8843051    1.7272553    4.9695085 
        0.37   -1.8835353    1.7377094    4.9773696 
        0.38   -1.8826909    1.7981971    4.7450774 
        0.39   -1.8821779    1.8439544    4.5690879 
         0.4   -1.8816348    1.8542886    4.5551607 
        0.41   -1.8826751    1.8428831    4.6432378 
        0.42   -1.8839777    1.8166798    4.7983409 
        0.43    -1.882396    1.7830131    4.9847434 
        0.44   -1.8825192    1.7570875    5.1204181 
        0.45   -1.8840859     1.746747     5.165132 
        0.46   -1.8863053    1.7547755    5.1065523 
        0.47   -1.8867031    1.7816151    4.9521992 
        0.48   -1.8872619    1.8141151    4.7687181 
        0.49   -1.8858548    1.8181287    4.7241161 
         0.5   -1.8859421    1.7739313    4.9056186 
        0.51   -1.8869168    1.7328282    5.0838506 
        0.52   -1.8873861    1.7540443    4.9962036 
        0.53    -1.886775    1.7804395    4.8926777 
        0.54   -1.8872666    1.7705269     4.954812 
        0.55   -1.8864858    1.7441349    5.0992645 
        0.56   -1.8867418    1.7013633    5.3165717 
        0.57   -1.8880068    1.6491905    5.5687448 
        0.58   -1.8875909    1.6254515     5.685044 
        0.59   -1.8876264    1.6521363    5.5619173 
         0.6   -1.8875404    1.6957885     5.351326 
        0.61   -1.8869965    1.7178188    5.2286939 
        0.62   -1.8871053    1.7328503    5.1306386 
        0.63   -1.8876299    1.7621822    4.9653005 
        0.64   -1.8859615    1.8005746     4.766478 
        0.65   -1.8841593    1.8194377    4.6648028 
        0.66   -1.8831024    1.7941233    4.7675269 
        0.67   -1.8841005    1.7411692    4.9895691 
        0.68   -1.8840541    1.7149392    5.0844812 
        0.69   -1.8846617    1.7486159    4.9049983 
         0.7   -1.8842798    1.7710792    4.7769988 
        0.71   -1.8834592    1.7588386    4.8156215 
        0.72   -1.8817641    1.7420517    4.8898501 
        0.73   -1.8808542    1.7223838    4.9813299 
        0.74   -1.8803121     1.697698    5.0916621 
        0.75    -1.879136    1.6843944    5.1449076 
        0.76   -1.8803067    1.6867408    5.1161009 
        0.77   -1.8830627    1.7062547     5.005047 
        0.78   -1.8826903    1.7300038    4.8816029 
        0.79   -1.8831987    1.7420841    4.8100767 
         0.8   -1.8827983    1.7509667    4.7543738 
        0.81   -1.8829024    1.7668887     4.665558 
        0.82   -1.8820114    1.8072473    4.4747317 
        0.83   -1.8811374    1.8485855    4.2907326 
        0.84   -1.8820391    1.8514323    4.2882732 
        0.85   -1.8823862     1.823838    4.4316344 
        0.86   -1.8819859    1.8049225     4.539547 
        0.87   -1.8805863    1.8041499    4.5650497 
        0.88   -1.8816571    1.7941357    4.6228728 
        0.89   -1.8808217    1.7629916    4.7713975 
         0.9   -1.8810857    1.7644787    4.7726364 
        0.91   -1.8798561    1.7940271    4.6578469 
        0.92   -1.8791714    1.7871991    4.7122047 
        0.93   -1.8792842     1.759347    4.8692075 
        0.94   -1.8780925    1.7335465    5.0210568 
        0.95   -1.8791383    1.7277637    5.0740542 
        0.96   -1.8775676    1.7429914    5.0268148 
        0.97   -1.8765417    1.7736776    4.9019418 
        0.98   -1.8752497    1.7978809    4.8048927 
        0.99   -1.8777176    1.7967238    4.8187924 
           1   -1.8778416    1.7767886    4.9271839 
        1.01    -1.878901     1.745358    5.0910997 
        1.02    -1.880195    1.6984566     5.323078 
        1.03   -1.8822314    1.6610762    5.5043432 
        1.04   -1.8815052    1.6764785    5.4501463 
        1.05   -1.8819426    1.7000085    5.3556932 
        1.06   -1.8798069    1.6882965    5.4229623 
        1.07   -1.8786115    1.6762134     5.492396 
        1.08   -1.8786334    1.6836323    5.4699864 
        1.09   -1.8770753    1.6902183     5.444362 
         1.1   -1.8782223      1.68735    5.4426629 
        1.11   -1.8793901    1.6935222    5.3859869 
        1.12   -1.8800538    1.7117633    5.2637673 
        1.13   -1.8814777    1.7323522    5.1224038 
        1.14   -1.8809574    1.7596839    4.9561744 
        1.15   -1.8795308    1.7862655    4.8063272 
        1.16    -1.879418    1.7962155    4.7486269 
        1.17   -1.8798068    1.7745936    4.8539432 
        1.18   -1.8786085    1.7261296    5.0999311 
        1.19   -1.8802893    1.6761226    5.3561186 
         1.2   -1.8800235    1.6457961    5.5223636 
        1.21   -1.8804351    1.6436568    5.5476613 
        1.22   -1.8812458    1.6536669    5.5024504 
        1.23   -1.8826607    1.6548459    5.4854089 
        1.24   -1.8839854    1.6601131     5.450075 
        1.25   -1.8820329    1.6597291    5.4456111 
        1.26   -1.8819934    1.6597824    5.4338606 
        1.27   -1.8832188    1.6902047     5.284901 
        1.28    -1.883349    1.7114888    5.1760177 
        1.29   -1.8830594    1.7139611    5.1509261 
         1.3   -1.8821509    1.7186967     5.117123 
        1.31   -1.8821371     1.725935    5.0651998 
        1.32   -1.8814661    1.7486036    4.9352199 
        1.33   -1.8817661      1.79948    4.6717622 
        1.34   -1.8811626    1.8376681     4.468049 
        1.35   -1.8813832    1.8188237    4.5232212 
        1.36   -1.8823573    1.7764333    4.6865145 
        1.37   -1.8817075    1.7710987    4.6867103 
        1.38   -1.8830487    1.8014425    4.5216972 
        1.39   -1.8822672    1.8339413    4.3534681 
         1.4   -1.8834437    1.8579007    4.2352907 
        1.41   -1.8852862     1.867989    4.2032241 
        1.42   -1.8855606    1.8509969    4.3236106 
        1.43   -1.8838456    1.8036013    4.6066016 
        1.44   -1.8839743    1.7498529    4.9267766 
        1.45   -1.8821396     1.703817    5.2078497 
        1.46   -1.8828967    1.6824064    5.3495375 
        1.47   -1.8839711     1.705378    5.2614729 
        1.48   -1.8839715    1.7487143    5.0558773 
        1.49   -1.8842405    1.7953444    4.8209665 
         1.5   -1.8832023    1.8259659     4.658856 
        1.51   -1.8825426    1.8288356    4.6266094 
        1.52    -1.879131    1.8078531    4.7117923 
        1.53   -1.8789744    1.7821135    4.8143485 
        1.54   -1.8783074     1.778309    4.8154403 
        1.55    -1.879115    1.8087424    4.6565198 
        1.56   -1.8802078     1.848967    4.4554551 
        1.57   -1.8786408    1.8548136    4.4210253 
        1.58   -1.8789745     1.829846    4.5333445 
        1.59    -1.880422    1.8227314    4.5772268 
         1.6   -1.8791367    1.8298506    4.5688924 
        1.61   -1.8792808    1.8293104     4.597281 
        1.62   -1.8800729    1.8062264    4.7292006 
        1.63   -1.8793945    1.7567129    4.9801356 
        1.64   -1.8781978    1.7096734    5.2131802 
        1.65   -1.8790014    1.6881534    5.3158155 
        1.66   -1.8792661     1.679717    5.3426858 
        1.67   -1.8784451     1.684336    5.2936071 
        1.68   -1.8792331    1.7309788    5.0399551 
        1.69   -1.8787664    1.8090183    4.6447392 
         1.7   -1.8781279    1.8616641    4.3754722 
        1.71   -1.8791523    1.8693942    4.3323981 
        1.72   -1.8791433    1.8480118    4.4551319 
        1.73   -1.8805594    1.8109263    4.6733608 
        1.74   -1.8793693    1.7838199    4.8701075 
        1.75   -1.8799332    1.7796455    4.9738784 
        1.76   -1.8785051    1.7678298    5.1198279 
        1.77   -1.8777186    1.7363166    5.3548103 
        1.78   -1.8777122    1.6890389    5.6566495 
        1.79   -1.8761318    1.6342478    5.9831338 
         1.8   -1.8764908    1.5904054    6.2331221 
        1.81   -1.8767587    1.5882408     6.262521 
        1.82    -1.877303    1.6232197    6.0881746 
        1.83   -1.8803095    1.6697939    5.8309613 
        1.84    -1.881892    1.7125015    5.5875337 
        1.85   -1.8825457    1.7322677    5.4605091 
        1.86   -1.8831874    1.7282909    5.4625535 
        1.87   -1.8821618    1.7117529    5.5479547 
        1.88   -1.8816401    1.6753438    5.7367161 
        1.89   -1.8822578    1.6272303    5.9768614 
         1.9   -1.8818721    1.6012208    6.1076088 
        1.91    -1.881891    1.5977789    6.1139007 
        1.92   -1.8826597    1.6024033    6.0555846 
        1.93    -1.881329    1.6271358    5.8858258 
        1.94   -1.8827763    1.6908521    5.5200113 
        1.95   -1.8803524    1.7759556    5.0621453 
        1.96   -1.8788366    1.8257046    4.7783791 
        1.97   -1.8801467    1.7915816    4.8963695 
        1.98   -1.8793958    1.6832038    5.3751905 
        1.99   -1.8808884    1.6007236    5.7432584 
           2   -1.8801516     1.614921    5.6731808 
        2.01    -1.879932    1.6878733    5.3189878 
        2.02   -1.8801003    1.7677702    4.9188441 
        2.03   -1.8811595    1.8151042    4.6615652 
        2.04   -1.8822006    1.8125968    4.6371262 
        2.05    -1.881919    1.7641101    4.8341905 
        2.06    -1.883317    1.6940186    5.1339072 
        2.07   -1.8832811    1.6482071    5.3272338 
        2.08   -1.8832919    1.6600889    5.2549573 
        2.09    -1.883964    1.7176011    4.9671447 
         2.1   -1.8828179    1.7934044    4.5972812 
        2.11   -1.8829702    1.8534937    4.3043361 
        2.12   -1.8821919    1.8721989    4.2163377 
        2.13   -1.8820431    1.8441705    4.3546315 
        2.14   -1.8839727    1.7948388     4.593537 
        2.15   -1.8834306    1.7623647    4.7567925 
        2.16   -1.8825258    1.7679731    4.7397979 
        2.17   -1.8836092    1.8009463    4.5923578 
        2.18   -1.8841421    1.8216001     4.503493 
        2.19   -1.8841207    1.8145774    4.5462875 
         2.2   -1.8821553    1.7953356    4.6536722 
        2.21   -1.8825493    1.7734389    4.7714133 
        2.22   -1.8834545    1.7505805    4.8874955 
        2.23   -1.8818576    1.7418081    4.9328409 
        2.24   -1.8825321    1.7700484    4.7987558 
        2.25   -1.8819208    1.8120805    4.6037448 
        2.26   -1.8820656    1.8239757    4.5528791 
        2.27   -1.8819192    1.7893043    4.7259534 
        2.28   -1.8827777    1.7300656    5.0148537 
        2.29    -1.881083    1.6998024    5.1768495 
         2.3   -1.8803339    1.7027547    5.1791183 
        2.31   -1.8807069    1.7115928    5.1394613 
        2.32   -1.8821401    1.7301624    5.0421021 
        2.33   -1.8825276    1.7571726    4.8963118 
        2.34   -1.8822584    1.7891739    4.7217315 
        2.35   -1.8817398    1.8255135    4.5312455 
        2.36   -1.8803417     1.855403    4.3864541 
        2.37   -1.8803479    1.8472718    4.4299303 
        2.38    -1.881979    1.8034718    4.6473504 
        2.39   -1.8827669    1.7823203     4.777106 
         2.4   -1.8822807    1.7862619    4.7991036 
        2.41   -1.8834708    1.7799435    4.8599399 
        2.42   -1.8831976    1.7485244    5.0264048 
        2.43   -1.8817192    1.7069843    5.2241102 
        2.44   -1.8797475    1.6935733    5.2756664 
        2.45   -1.8801578    1.7229648    5.1105493 
        2.46   -1.8816191    1.7764139     4.821498 
        2.47   -1.8808395    1.8248393    4.5523666 
        2.48    -1.881734    1.8606599    4.3394201 
        2.49   -1.8800591    1.8919702    4.1639215 
         2.5   -1.8804803    1.8982619    4.1187567 
        2.51   -1.8796907    1.8516017    4.3355285 
        2.52   -1.8805388    1.7667288    4.7342764 
        2.53   -1.8819199    1.7125339     4.993514 
        2.54   -1.8826216    1.7430788    4.8649358 
        2.55   -1.8828221    1.8177693    4.5301269 
        2.56   -1.8824285    1.8677313    4.3044995 
        2.57   -1.8829195    1.8839098    4.2332824 
        2.58   -1.8826307     1.894633    4.1904824 
        2.59   -1.8814684    1.9230987    4.0686757 
         2.6   -1.8820343    1.9561283    3.9254032 
        2.61   -1.8824371     1.953399    3.9499401 
        2.62   -1.8820218     1.902226    4.2026177 
        2.63   -1.8809367    1.8284783    4.5592743 
        2.64   -1.8807695    1.7791792    4.7948896 
        2.65   -1.8797497    1.7869349    4.7625618 
        2.66    -1.879009    1.8293899    4.5676569 
        2.67   -1.8795494    1.8615795    4.4257877 
        2.68   -1.8777252    1.8591661    4.4669479 
        2.69   -1.8775754    1.8198546    4.6991237 
         2.7   -1.8781918    1.7676186    5.0102667 
        2.71   -1.8782072    1.7412908    5.2217633 
        2.72   -1.8790399    1.7345589     5.351131 
        2.73   -1.8786457    1.7115181    5.5528105 
        2.74   -1.8791494    1.6786096    5.7882587 
        2.75   -1.8800723    1.6599079    5.9446049 
        2.76   -1.8795607    1.6559061    6.0180217 
        2.77   -1.8799445    1.6595812    6.0349204 
        2.78   -1.8805929    1.6735343    5.9872491 
        2.79   -1.8806011    1.6957391    5.8890344 
         2.8   -1.8806191    1.7106188    5.8096869 
        2.81   -1.8811129    1.7028068    5.8117625 
        2.82   -1.8780394    1.7112577    5.7218476 
        2.83   -1.8765508    1.7827827    5.3290315 
        2.84   -1.8765581    1.8515875    4.9360415 
        2.85   -1.8761642    1.8858064     4.704474 
        2.86   -1.8768083    1.8805866     4.659469 
        2.87   -1.8792572    1.8471765    4.7452803 
        2.88   -1.8791099    1.8182679    4.8184618 
        2.89   -1.8786018    1.8130419    4.7912633 
         2.9   -1.8800521    1.8208607    4.7158644 
        2.91   -1.8795718    1.8252023    4.6848502 
        2.92   -1.8803673      1.79366    4.8398843 
        2.93   -1.8810974     1.724124    5.1818927 
        2.94   -1.8802865    1.6696998    5.4645248 
        2.95   -1.8799242    1.6575394     5.553867 
        2.96   -1.8797897    1.6673862    5.5351384 
        2.97    -1.879797    1.6945795    5.4322289 
        2.98   -1.8786568    1.7275886    5.3046624 
        2.99   -1.8794455      1.73439    5.2969724 
           3   -1.8786366    1.7093077    5.4453755 
        3.01    -1.879418     1.671812    5.6555813 
        3.02   -1.8796661    1.6320743    5.8725462 
        3.03   -1.8791084    1.6118664    5.9867983 
        3.04   -1.8792667    1.6411049    5.8625167 
        3.05   -1.8797186    1.6915725    5.6354241 
        3.06    -1.878933    1.7092525     5.558043 
        3.07    -1.877726    1.6942627    5.6291595 
        3.08   -1.8772987    1.6808555    5.6798146 
        3.09   -1.8791231    1.7042067    5.5379436 
         3.1    -1.879687    1.7627042    5.2211553 
        3.11   -1.8807683    1.8108032    4.9452997 
        3.12    -1.879578    1.8108446    4.8949441 
        3.13   -1.8806886    1.7767723    5.0025212 
        3.14   -1.8796174    1.7658865    5.0179402 
        3.15    -1.879406    1.8017468    4.8336969 
        3.16   -1.8798535    1.8382037    4.6628757 
        3.17    -1.880232    1.8231806    4.7442959 
        3.18   -1.8804273    1.7746389    4.9980845 
        3.19   -1.8795568    1.7448211     5.191045 
         3.2   -1.8811301    1.7058138    5.4305609 
        3.21   -1.8809679    1.6466852    5.7596439 
        3.22   -1.8823689    1.5986913    6.0176635 
        3.23   -1.8810627    1.5955598    6.0488581 
        3.24   -1.8799148    1.6397056    5.8403149 
        3.25   -1.8807414    1.6996848    5.5471059 
        3.26   -1.8799735    1.7298593    5.3965638 
        3.27   -1.8808479    1.7135397    5.4630488 
        3.28    -1.880299    1.6864574    5.5871997 
        3.29   -1.8795442    1.6773144    5.6286488 
         3.3   -1.8794087    1.6741727    5.6277418 
        3.31   -1.8794895    1.6925194    5.5126385 
        3.32   -1.8811348    1.7578423    5.1776929 
        3.33   -1.8812779    1.8038341    4.9324646 
        3.34   -1.8803401    1.8016179    4.9166858 
        3.35   -1.8799379    1.7686233    5.0513617 
        3.36    -1.877833    1.7207463    5.2577726 
        3.37     -1.87739    1.6837732    5.3995764 
        3.38   -1.8783207    1.7058111    5.2569372 
        3.39   -1.8785058    1.7734388    4.8969048 
         3.4   -1.8783749    1.8346214    4.5633917 
        3.41   -1.8799387    1.8781707    4.3206151 
        3.42   -1.8789174    1.9008275    4.2009387 
        3.43   -1.8781425    1.8831172    4.2877985 
        3.44   -1.8777166    1.8274649    4.5633425 
        3.45   -1.8774406     1.772152    4.8454773 
        3.46   -1.8771744    1.7406957    5.0158419 
        3.47   -1.8771786    1.7426651    5.0268128 
        3.48   -1.8773593    1.7703584    4.9192925 
        3.49   -1.8769903    1.7773769    4.9077861 
         3.5   -1.8772127    1.7374668    5.1062562 
        3.51   -1.8780594    1.6851852    5.3495161 
        3.52   -1.8797411    1.6848266    5.3390642 
        3.53    -1.881897    1.7508275    5.0114601 
        3.54   -1.8823414    1.8224152    4.6554644 
        3.55   -1.8827581    1.8409463    4.5504465 
        3.56    -1.883366    1.7866513    4.7895157 
        3.57   -1.8831157    1.7293785    5.0546129 
        3.58   -1.8843002     1.758643    4.9398469 
        3.59   -1.8853165     1.782287    4.8411655 
         3.6   -1.8843714     1.798758    4.7706768 
        3.61   -1.8868868    1.8282871    4.6336068 
        3.62   -1.8858317    1.8417528    4.5727287 
        3.63   -1.8866129    1.8406872    4.5791741 
        3.64   -1.8864776    1.8261076    4.6543676 
        3.65   -1.8847647    1.8031659    4.7741182 
        3.66   -1.8859545    1.7833335    4.8768688 
        3.67   -1.8846566    1.7567674    5.0083091 
        3.68   -1.8842115    1.7280231    5.1357729 
        3.69   -1.8821507    1.7403817    5.0741923 
         3.7   -1.8819752    1.7673971    4.9450544 
        3.71   -1.8814243    1.7390539    5.0683843 
        3.72   -1.8827554    1.6903887    5.2820838 
        3.73   -1.8818827    1.7096603    5.1942557 
        3.74    -1.881407     1.770223    4.9126168 
        3.75   -1.8803789    1.8159789    4.6963515 
        3.76   -1.8822029    1.8216597    4.6644991 
        3.77    -1.881245    1.7903539    4.8138694 
        3.78   -1.8804395    1.7602031    4.9631162 
        3.79   -1.8795558    1.7543488    5.0012217 
         3.8   -1.8793151     1.748126    5.0334295 
        3.81   -1.8807366    1.7237973    5.1401339 
        3.82   -1.8843671    1.6947431    5.2621652 
        3.83   -1.8830446    1.6899075     5.280496 
        3.84   -1.8815105    1.7236015    5.1254955 
        3.85   -1.8807475     1.765441    4.9349867 
        3.86   -1.8815329    1.7872504    4.8404247 
        3.87   -1.8811261    1.7811104    4.8845938 
        3.88   -1.8798016    1.7588607     5.011121 
        3.89   -1.8804448    1.7390646    5.1265626 
         3.9   -1.8801987    1.7310379    5.1897073 
        3.91   -1.8794261    1.7238314    5.2463604 
        3.92   -1.8779636    1.7117959    5.3205857 
        3.93    -1.878609    1.7189756    5.3037408 
        3.94   -1.8803508    1.7508493    5.1801502 
        3.95   -1.8805116    1.7670701    5.1384586 
        3.96   -1.8799579    1.7378753    5.3057983 
        3.97   -1.8805696    1.6872862    5.5591938 
        3.98   -1.8802876    1.6555014    5.7077385 
        3.99    -1.882118    1.6640963    5.6445537 
           4   -1.8810971    1.7078488    5.4084189 
        4.01   -1.8816424    1.7595305    5.1286937 
        4.02   -1.8821655    1.7915921    4.9440782 
        4.03   -1.8831869    1.7990289    4.8813151 
        4.04   -1.8826626    1.7980504    4.8695615 
        4.05   -1.8837073    1.7927819    4.8782882 
        4.06   -1.8838235    1.7838061    4.9028894 
        4.07    -1.884349    1.7842783    4.8827975 
        4.08   -1.8835912    1.7905056    4.8412305 
        4.09   -1.8841194    1.7784704     4.884049 
         4.1   -1.8827886    1.7424893    5.0375248 
        4.11   -1.8823549    1.7118229    5.1557522 
        4.12   -1.8838009    1.7260475    5.0530721 
        4.13   -1.8839819    1.7761738    4.7784075 
        4.14   -1.8821634     1.814893    4.5573721 
        4.15    -1.882022    1.8253588    4.4747121 
        4.16   -1.8799286    1.8151246    4.5085904 
        4.17   -1.8808332     1.794084    4.6037997 
        4.18   -1.8804421    1.7750933    4.7042913 
        4.19   -1.8820284    1.7597915    4.7949389 
         4.2    -1.883461    1.7340252    4.9409451 
        4.21    -1.883593    1.6968445    5.1457671 
        4.22    -1.884085    1.6558205     5.362854 
        4.23   -1.8827655    1.6403058    5.4538899 
        4.24   -1.8822727    1.6656175    5.3432002 
        4.25   -1.8824376    1.7035958    5.1639831 
        4.26    -1.881905    1.7191274    5.0866493 
        4.27   -1.8827866    1.7160626    5.1010601 
        4.28   -1.8821529    1.7149522    5.1268253 
        4.29   -1.8825578    1.7001825    5.2278718 
         4.3   -1.8809548    1.6629194    5.4411297 
        4.31   -1.8815862    1.6341576    5.6099461 
        4.32   -1.8809274    1.6406433    5.6052656 
        4.33   -1.8813298     1.692005    5.3723599 
        4.34   -1.8819159    1.7715839    4.9939442 
        4.35   -1.8817976    1.8228694    4.7367695 
        4.36   -1.8817716    1.8258511    4.7008818 
        4.37    -1.884216    1.8028367    4.7845356 
        4.38    -1.884592    1.7887653    4.8350708 
        4.39   -1.8846244    1.7973496    4.7877376 
         4.4   -1.8838787    1.7993614    4.7741527 
        4.41   -1.8830488    1.7679188    4.9075041 
        4.42   -1.8834133     1.749714    4.9709408 
        4.43   -1.8826854    1.7681135    4.8606938 
        4.44   -1.8822679     1.782547    4.7581693 
        4.45   -1.8827955    1.8033793    4.6281832 
        4.46   -1.8813648     1.825258    4.5016148 
        4.47    -1.881877    1.8399136    4.4098575 
        4.48    -1.881751    1.8569211     4.318655 
        4.49   -1.8823099    1.8707005    4.2543912 
         4.5   -1.8825572    1.8548486    4.3336405 
        4.51   -1.8810925    1.8222626    4.4967676 
        4.52    -1.881876    1.8003973    4.6102368 
        4.53    -1.881892    1.7912732    4.6680107 
        4.54   -1.8824285    1.7808998    4.7322888 
        4.55   -1.8822952    1.7604008    4.8457356 
        4.56   -1.8810964    1.7367837    4.9735942 
        4.57   -1.8812011    1.7379211     4.981421 
        4.58   -1.8822818    1.7833463    4.7829098 
        4.59   -1.8808781    1.8379287     4.547579 
         4.6   -1.8814021    1.8644868    4.4458897 
        4.61   -1.8826873    1.8576272    4.5092109 
        4.62   -1.8825499    1.8365765    4.6513855 
        4.63   -1.8817886    1.8104154    4.8214654 
        4.64   -1.8825731    1.7653747    5.0653709 
        4.65   -1.8839693    1.7093002    5.3377107 
        4.66    -1.884869    1.6848079    5.4436739 
        4.67   -1.8839944    1.7061502    5.3259458 
        4.68   -1.8824714    1.7347671    5.1705853 
        4.69   -1.8832659    1.7251993    5.1932673 
         4.7   -1.8816665    1.6716867    5.4326746 
        4.71   -1.8822731    1.6095496    5.7124044 
        4.72   -1.8830174    1.5936791     5.771839 
        4.73   -1.8824168    1.6567253    5.4601244 
        4.74   -1.8839118    1.7486905    5.0014462 
        4.75   -1.8841688    1.8062302    4.6991438 
        4.76   -1.8853177    1.8212839    4.5964409 
        4.77   -1.8847772    1.8145047    4.6044274 
        4.78   -1.8846465    1.8041101    4.6336537 
        4.79   -1.8847922    1.7935497    4.6670649 
         4.8   -1.8841484    1.7727478    4.7523888 
        4.81   -1.8832113    1.7414892     4.893889 
        4.82   -1.8834942    1.7174615    5.0169524 
        4.83   -1.8820686    1.6829095    5.2026954 
        4.84   -1.8830507     1.632799    5.4558345 
        4.85   -1.8848501    1.6202366    5.5320465 
        4.86   -1.8852865     1.669248    5.3223406 
        4.87   -1.8846827    1.7391778    5.0122783 
        4.88    -1.884175    1.7786027    4.8418038 
        4.89    -1.884683    1.7690222    4.9004793 
         4.9   -1.8830747    1.7290873    5.1078048 
        4.91   -1.8813538    1.7041145    5.2503264 
        4.92   -1.8790257    1.7170053    5.2182486 
        4.93    -1.879419    1.7508276    5.0775496 
        4.94   -1.8799501    1.7901663    4.9047762 
        4.95     -1.88022    1.8203769    4.7708352 
        4.96   -1.8803449    1.8294386    4.7311825 
        4.97    -1.880719     1.821828    4.7628415 
        4.98   -1.8787413    1.8198036    4.7647749 
        4.99   -1.8788858    1.8421416     4.642674 
           5   -1.8790504    1.8762515    4.4592508 
        5.01   -1.8798507    1.8925629    4.3553522 
        5.02   -1.8785289    1.8763084    4.4114983 
        5.03   -1.8789048    1.8408839    4.5667407 
        5.04   -1.8799516    1.8045397    4.7393669 
        5.05   -1.8800875    1.7672358    4.9241226 
        5.06   -1.8803266    1.7312045    5.0992265 
        5.07   -1.8803239    1.7172102    5.1657529 
        5.08   -1.8812685    1.7297062    5.1005085 
        5.09   -1.8824555    1.7401153    5.0317402 
         5.1   -1.8830713    1.7384336    5.0039398 
        5.11   -1.8847542    1.7506169    4.8989205 
        5.12   -1.8862087      1.78683    4.6783898 
        5.13   -1.8863643    1.8277326    4.4422592 
        5.14   -1.8858595    1.8461334    4.3221387 
        5.15   -1.8841403    1.8264411    4.3894155 
        5.16   -1.8842247    1.7908071    4.5328592 
        5.17   -1.8843666    1.7819775    4.5584803 
        5.18   -1.8860928    1.7961791    4.4804732 
        5.19   -1.8867346    1.8066276    4.4295413 
         5.2   -1.8868717    1.8116828      4.42141 
        5.21   -1.8862179    1.8031542     4.492491 
        5.22   -1.8869729    1.7845042    4.6161736 
        5.23   -1.8871083    1.7773505     4.693505 
        5.24   -1.8868718    1.7781573    4.7393367 
        5.25   -1.8862244    1.7652545     4.852783 
        5.26   -1.8849017    1.7373855    5.0405127 
        5.27   -1.8842497    1.7103985    5.2275188 
        5.28   -1.8846624    1.6865574     5.400092 
        5.29   -1.8845302    1.6538971    5.6099953 
         5.3   -1.8834515    1.6225744    5.8068344 
        5.31   -1.8843758    1.6250957    5.8354681 
        5.32   -1.8828417    1.6549425     5.728313 
        5.33   -1.8825891    1.6820141    5.6169977 
        5.34   -1.8815511    1.6923186    5.5747301 
        5.35   -1.8814082    1.6790444    5.6306955 
        5.36   -1.8801907    1.6582499    5.7128552 
        5.37   -1.8808481    1.6665711    5.6518534 
        5.38   -1.8803613    1.7011228    5.4669749 
        5.39   -1.8815422    1.7271139    5.3134789 
         5.4   -1.8824422     1.732924    5.2523165 
        5.41   -1.8824252    1.7312319     5.230868 
        5.42   -1.8821779     1.734572    5.1948091 
        5.43   -1.8819313    1.7315407    5.1958418 
        5.44   -1.8829574    1.7076401     5.291946 
        5.45   -1.8818512    1.6810117    5.3952885 
        5.46   -1.8819667    1.7022902    5.2646673 
        5.47   -1.8808361    1.7786827    4.8710572 
        5.48   -1.8808753    1.8647351    4.4242237 
        5.49    -1.881014    1.9176596    4.1331556 
         5.5   -1.8811251    1.9253616     4.061729 
        5.51   -1.8824095    1.9054852    4.1295333 
        5.52   -1.8821529    1.8798595     4.238273 
        5.53   -1.8823042    1.8509266    4.3663711 
        5.54   -1.8825155    1.8200392    4.4996833 
        5.55   -1.8839756    1.8351733     4.422904 
        5.56   -1.8836312    1.8763195    4.2297797 
        5.57   -1.8831977    1.8907516    4.1513801 
        5.58   -1.8832985    1.9022965    4.0825665 
        5.59   -1.8827886    1.9327655    3.9270666 
         5.6    -1.883864    1.9665339    3.7538279 
        5.61   -1.8834693    1.9726371    3.7125493 
        5.62   -1.8837062    1.9490479    3.8161474 
        5.63   -1.8821331    1.9174827    3.9772984 
        5.64   -1.8808414    1.8846622    4.1662689 
        5.65   -1.8829415    1.8436533    4.4110235 
        5.66   -1.8816536    1.7875796    4.7489007 
        5.67   -1.8804432    1.7152204    5.1636783 
        5.68   -1.8812106    1.6578533    5.4938588 
        5.69   -1.8809481    1.6345299    5.6436701 
         5.7   -1.8812226    1.6464016    5.6023736 
        5.71   -1.8817725    1.6784476    5.4449225 
        5.72   -1.8816267    1.7106161     5.272951 
        5.73   -1.8812435    1.7519445    5.0583732 
        5.74   -1.8795805     1.791851    4.8582618 
        5.75   -1.8797011    1.7999307    4.8037221 
        5.76   -1.8786232    1.7854896    4.8541954 
        5.77    -1.878478    1.7799596    4.8583774 
        5.78   -1.8801774    1.7998955    4.7358845 
        5.79   -1.8804396    1.8463019    4.4897198 
         5.8   -1.8808625     1.910518    4.1667995 
        5.81   -1.8814052    1.9584778    3.9335942 
        5.82   -1.8811439     1.961448    3.9319499 
        5.83    -1.881774    1.9147211    4.1798021 
        5.84    -1.880833    1.8407427    4.5679402 
        5.85   -1.8808142    1.7707129    4.9340485 
        5.86     -1.88119    1.7317779    5.1429024 
        5.87   -1.8793783    1.7403833    5.1231868 
        5.88    -1.879023    1.7804783    4.9493391 
        5.89   -1.8785173    1.8144948    4.8026206 
         5.9    -1.878759    1.8229623    4.7759205 
        5.91   -1.8791507    1.8174788    4.8219238 
        5.92   -1.8787541    1.8023747    4.9207555 
        5.93   -1.8795511    1.7803251    5.0549696 
        5.94   -1.8791589    1.7429445    5.2585911 
        5.95   -1.8782025    1.6973103    5.4873847 
        5.96   -1.8790902    1.6867813    5.5364067 
        5.97   -1.8800397    1.7354607    5.3037789 
        5.98   -1.8793072    1.8063124    4.9714829 
        5.99   -1.8788009    1.8451784     4.797218 
           6   -1.8776198    1.8290291    4.8975573 
        6.01   -1.8769435    1.7665132    5.2287301 
        6.02   -1.8771747    1.6880143    5.6381095 
        6.03   -1.8767651    1.6291835    5.9498402 
        6.04   -1.8775578    1.6087236      6.06706 
        6.05   -1.8788966    1.6174902    6.0348891 
        6.06   -1.8782593    1.6229141    6.0096959 
        6.07   -1.8781964    1.6153128    6.0315413 
        6.08   -1.8785927    1.6443105    5.8814535 
        6.09   -1.8792998    1.7052984    5.5831164 
         6.1   -1.8812642    1.7455928    5.3773389 
        6.11   -1.8805989    1.7495088    5.3467879 
        6.12   -1.8816254    1.7296222    5.4245401 
        6.13   -1.8817323    1.7066907    5.5109853 
        6.14   -1.8814627    1.7044567    5.4902534 
        6.15   -1.8816141    1.7286986    5.3324896 
        6.16   -1.8832046    1.7567189    5.1416301 
        6.17   -1.8822884    1.7637169    5.0428262 
        6.18   -1.8835633    1.7525604    5.0222792 
        6.19   -1.8828927    1.7515415    4.9644277 
         6.2   -1.8821309    1.7780162    4.7934348 
        6.21   -1.8821583    1.8145486    4.5911043 
        6.22   -1.8820233    1.8350885    4.4785824 
        6.23   -1.8826763    1.8399765    4.4535942 
        6.24   -1.8812197    1.8322463    4.4995459 
        6.25   -1.8792508    1.8303299    4.5250208 
        6.26   -1.8792752    1.8401488    4.4980586 
        6.27   -1.8791428    1.8433558    4.5061968 
        6.28   -1.8801952     1.835073    4.5739042 
        6.29   -1.8796843    1.8109015    4.7240902 
         6.3   -1.8802097    1.7649383    4.9694494 
        6.31   -1.8808026    1.7114067    5.2323216 
        6.32   -1.8810635    1.7113691    5.2338311 
        6.33   -1.8803752    1.7622149    4.9928495 
        6.34    -1.881937    1.7775141    4.9017269 
        6.35   -1.8825204    1.7473121     5.020405 
        6.36   -1.8827567     1.726102    5.1036878 
        6.37   -1.8823788    1.7381606    5.0376228 
        6.38   -1.8816147    1.7670944    4.8941172 
        6.39   -1.8829125    1.7908406    4.7694089 
         6.4   -1.8832981    1.8132958     4.652751 
        6.41   -1.8835687    1.8420189    4.5106593 
        6.42   -1.8826958    1.8674389    4.3940295 
        6.43   -1.8832364    1.8561533    4.4548232 
        6.44   -1.8830714     1.794485    4.7566254 
        6.45   -1.8836864    1.7196944    5.1192301 
        6.46   -1.8853686    1.6828736    5.2980554 
        6.47   -1.8870025    1.7030705    5.2045812 
        6.48   -1.8862468    1.7246049    5.0927863 
        6.49   -1.8875021    1.7184985    5.0870252 
         6.5   -1.8870895    1.7295807    4.9948753 
        6.51    -1.887519    1.7754052    4.7404959 
        6.52   -1.8872648    1.8209365     4.494657 
        6.53   -1.8868814    1.8479857    4.3514543 
        6.54   -1.8859788    1.8434117    4.3735891 
        6.55   -1.8855676    1.8004223    4.5818821 
        6.56   -1.8844542    1.7465428     4.842545 
        6.57   -1.8851387    1.7440954    4.8711419 
        6.58   -1.8857144    1.7723167    4.7666826 
        6.59   -1.8841627    1.7712349    4.8074976 
         6.6   -1.8832221    1.7213273    5.0760982 
        6.61   -1.8832602    1.6603118    5.3877813 
        6.62   -1.8840819    1.6698284    5.3682533 
        6.63   -1.8841617     1.722296    5.1425591 
        6.64   -1.8833775     1.738183    5.0751631 
        6.65    -1.884252    1.7090384    5.2056917 
        6.66   -1.8837945    1.6797241    5.3312227 
        6.67   -1.8826706    1.7050027    5.2031095 
        6.68   -1.8823258    1.7431796    5.0059569 
        6.69   -1.8803357    1.7449006    4.9710484 
         6.7   -1.8817027    1.7388196    4.9669242 
        6.71   -1.8821383     1.778026    4.7649657 
        6.72   -1.8813953    1.8315829    4.5017189 
        6.73   -1.8799536     1.858551    4.3623459 
        6.74   -1.8804532    1.8616338    4.3329955 
        6.75   -1.8810889    1.8624184    4.3175053 
        6.76   -1.8797895    1.8749362    4.2539512 
        6.77   -1.8787597    1.8920729     4.172383 
        6.78   -1.8787694    1.8976329    4.1496532 
        6.79   -1.8787765    1.8818676    4.2353078 
         6.8   -1.8777288    1.8420245    4.4394966 
        6.81   -1.8787349    1.7887614    4.6956018 
        6.82   -1.8788207    1.7674334    4.7926757 
        6.83   -1.8796535    1.8142056    4.5676727 
        6.84     -1.88077    1.8819007    4.2463036 
        6.85   -1.8818206     1.896585    4.1763445 
        6.86   -1.8824205    1.8462113    4.4196783 
        6.87   -1.8832923    1.7819143    4.7414376 
        6.88   -1.8834428    1.7449786    4.9469046 
        6.89   -1.8839889    1.7237423     5.075373 
         6.9   -1.8821427    1.6988998    5.2121254 
        6.91   -1.8822557    1.6818658    5.2984931 
        6.92   -1.8824195    1.6841405    5.2887714 
        6.93   -1.8837461     1.678987     5.302748 
        6.94     -1.88449      1.65329    5.4035017 
        6.95   -1.8851259    1.6460519    5.4189154 
        6.96   -1.8846487    1.6752234    5.2717545 
        6.97   -1.8846697    1.7020256    5.1332098 
        6.98    -1.884645    1.7078159    5.0923695 
        6.99   -1.8841187    1.7104314    5.0728223 
           7   -1.8841099    1.7217941    5.0151584 
        7.01   -1.8838574    1.7493403     4.882404 
        7.02   -1.8836123    1.7839084    4.7120107 
        7.03   -1.8820497    1.8093591    4.5776795 
        7.04   -1.8812634    1.8196793    4.5063143 
        7.05   -1.8813885    1.8154913    4.5007797 
        7.06   -1.8805987    1.8049139    4.5330207 
        7.07   -1.8821816    1.7956795    4.5667262 
        7.08   -1.8829652    1.7820884    4.6320188 
        7.09   -1.8844129    1.7621691    4.7331419 
         7.1   -1.8842587    1.7294501    4.8942305 
        7.11   -1.8834403    1.7082428    4.9954965 
        7.12    -1.883172    1.7312806    4.8815501 
        7.13   -1.8834673    1.7992291    4.5505663 
        7.14   -1.8833663    1.8744628    4.1816319 
        7.15   -1.8849305    1.9214684     3.943779 
        7.16   -1.8841342    1.9350336    3.8774521 
        7.17   -1.8837333    1.9268985    3.9303256 
        7.18   -1.8855661    1.9092126    4.0460321 
        7.19   -1.8859792    1.8825965    4.2251499 
         7.2   -1.8837667    1.8363818    4.5083411 
        7.21   -1.8841181    1.7803463    4.8291821 
        7.22   -1.8855479    1.7549639    4.9965591 
        7.23   -1.8834756    1.7679571    4.9749557 
        7.24   -1.8833888    1.7943806    4.8742096 
        7.25   -1.8840427    1.7896111    4.9082679 
        7.26   -1.8829616    1.7493242    5.1082301 
        7.27   -1.8822785    1.7119055    5.2980528 
        7.28   -1.8816442    1.7031819    5.3559308 
        7.29   -1.8824233    1.7100959    5.3311797 
         7.3   -1.8832189    1.7276938    5.2508083 
        7.31   -1.8827208    1.7414524    5.1876916 
        7.32   -1.8826961    1.7338374    5.2205039 
        7.33   -1.8833537    1.7225078    5.2708574 
        7.34   -1.8833619    1.7114417    5.3171794 
        7.35   -1.8827251    1.6972869    5.3688451 
        7.36    -1.883355    1.6739905    5.4439053 
        7.37   -1.8829338      1.66341    5.4454617 
        7.38    -1.883841    1.6944698     5.243981 
        7.39   -1.8844049    1.7676574    4.8512925 
         7.4   -1.8848122    1.8389248    4.4763229 
        7.41   -1.8814186    1.8809814    4.2604982 
        7.42   -1.8818192    1.8864151    4.2329427 
        7.43    -1.881525    1.8510145    4.4147849 
        7.44   -1.8813489    1.8071592    4.6466835 
        7.45   -1.8833104    1.7986651    4.7160735 
        7.46   -1.8847872    1.8192105    4.6495468 
        7.47   -1.8843913     1.830948    4.6214345 
        7.48   -1.8830839    1.8275883    4.6681155 
        7.49    -1.883753    1.8092527    4.7904995 
         7.5   -1.8844103    1.7660426    5.0341303 
        7.51   -1.8831899    1.7019954    5.3751252 
        7.52   -1.8853869    1.6583476    5.6129737 
        7.53   -1.8840921     1.657649    5.6524031 
        7.54   -1.8843632    1.6898304    5.5304571 
        7.55   -1.8854479    1.7334003    5.3516404 
        7.56   -1.8854533    1.7477271    5.3053988 
        7.57   -1.8856849    1.7233115    5.4333473 
        7.58   -1.8849836    1.6941702     5.579378 
        7.59   -1.8829115    1.7062123    5.5320547 
         7.6   -1.8821766    1.7467829    5.3412944 
        7.61     -1.88178    1.7719574    5.2098328 
        7.62   -1.8804492    1.7816516    5.1494517 
        7.63   -1.8787711    1.7922071    5.0919606 
        7.64   -1.8791708    1.7907633    5.0907305 
        7.65   -1.8793063    1.7696422     5.183811 
        7.66   -1.8815387    1.7268097    5.3751246 
        7.67    -1.881385    1.6656436    5.6504615 
        7.68   -1.8818695    1.6162432    5.8611243 
        7.69   -1.8818578    1.6216203    5.8093702 
         7.7   -1.8813957    1.6879375    5.4690472 
        7.71   -1.8814225    1.7576441    5.1022232 
        7.72    -1.881023    1.7937953    4.8866186 
        7.73    -1.881388    1.7990203    4.8141273 
        7.74   -1.8807162    1.8018702    4.7599909 
        7.75   -1.8810087    1.8197885    4.6430749 
        7.76   -1.8808871    1.8322685    4.5583616 
        7.77   -1.8791943    1.8256641    4.5724006 
        7.78   -1.8803608    1.7985726    4.6854128 
        7.79   -1.8807411    1.7621015    4.8519114 
         7.8   -1.8805945    1.7346267    4.9863303 
        7.81   -1.8803574    1.7325122    5.0142763 
        7.82   -1.8809159    1.7368545    5.0175207 
        7.83   -1.8810199    1.7199623    5.1157035 
        7.84   -1.8803298    1.7036588    5.2037826 
        7.85   -1.8788865    1.7219283    5.1239088 
        7.86   -1.8773458    1.7756187    4.8766424 
        7.87   -1.8771303    1.8275494    4.6413634 
        7.88   -1.8780277    1.8316875    4.6351048 
        7.89   -1.8798187    1.7956375    4.8256606 
         7.9   -1.8809769    1.7552812    5.0450399 
        7.91   -1.8813759    1.7306512    5.1902858 
        7.92   -1.8809876    1.7197783    5.2618153 
        7.93   -1.8807194    1.7175434    5.2804855 
        7.94   -1.8809836    1.7250136    5.2455867 
        7.95   -1.8822898    1.7357896    5.1882635 
        7.96   -1.8843642    1.7465053    5.1258604 
        7.97   -1.8845066    1.7621852    5.0433252 
        7.98   -1.8841453    1.7705238    4.9966818 
        7.99   -1.8845398    1.7502527    5.0803018 
           8   -1.8846356    1.7076253    5.2666418 
        8.01     -1.88487    1.6833042    5.3710013 
        8.02   -1.8846388    1.6977835    5.3013425 
        8.03   -1.8834607    1.7248523    5.1756447 
        8.04   -1.8824334    1.7535118    5.0496209 
        8.05   -1.8833419    1.7651447     5.008925 
        8.06   -1.8839744    1.7587214    5.0626872 
        8.07   -1.8837169    1.7489122     5.142822 
        8.08   -1.8844998     1.734719    5.2433761 
        8.09   -1.8842389    1.7165737    5.3596616 
         8.1    -1.882412    1.6959698    5.4797556 
        8.11   -1.8809496    1.6764875    5.5771794 
        8.12   -1.8814473    1.6843136    5.5280899 
        8.13   -1.8823948    1.7394665    5.2476904 
        8.14    -1.883485    1.8079095    4.8956105 
        8.15   -1.8834815    1.8434661    4.6908253 
        8.16   -1.8837016    1.8459082     4.642038 
        8.17   -1.8831735    1.8478413    4.6111252 
        8.18    -1.882807     1.857173    4.5639899 
        8.19   -1.8817732    1.8499227    4.6097736 
         8.2    -1.881362    1.8178445    4.7824769 
        8.21   -1.8812385    1.7779978     5.002224 
        8.22   -1.8817661    1.7332869    5.2444527 
        8.23   -1.8804218    1.6893992    5.4739953 
        8.24    -1.879375    1.6834493    5.5139671 
        8.25   -1.8800745     1.717526    5.3501364 
        8.26    -1.879689    1.7555202    5.1504909 
        8.27   -1.8804655    1.7863223    4.9693579 
        8.28   -1.8823193    1.8122472    4.8087709 
        8.29    -1.882492    1.8101549    4.7892019 
         8.3   -1.8819658    1.7489936    5.0535042 
        8.31     -1.88237    1.6551565     5.474161 
        8.32   -1.8806894     1.639273    5.5565493 
        8.33   -1.8810325     1.691829    5.3248099 
        8.34    -1.881387      1.73176    5.1364321 
        8.35     -1.87902    1.7661394    4.9710325 
        8.36   -1.8800703    1.8047409    4.7804577 
        8.37   -1.8820379     1.835369     4.628177 
        8.38   -1.8826913     1.846826    4.5719485 
        8.39    -1.882684    1.8395975    4.6085088 
         8.4   -1.8833262    1.8262264    4.6766262 
        8.41   -1.8815084    1.8177243    4.7295407 
        8.42   -1.8811458    1.8020315    4.8143753 
        8.43   -1.8816521    1.7570559    5.0291646 
        8.44   -1.8808165    1.7019811     5.288996 
        8.45   -1.8829149    1.6846489    5.3717877 
        8.46   -1.8839983    1.7014183    5.2980485 
        8.47   -1.8842595    1.7173729    5.2238406 
        8.48   -1.8829463    1.7291479    5.1684087 
        8.49   -1.8817743    1.7385576    5.1205499 
         8.5   -1.8821317    1.7474632    5.0675283 
        8.51   -1.8831867    1.7802073    4.9039984 
        8.52   -1.8839873    1.8253341    4.6842783 
        8.53   -1.8833416     1.859999    4.5198291 
        8.54   -1.8840185    1.8701835    4.4808805 
        8.55   -1.8828557    1.8323725    4.6831792 
        8.56   -1.8829468    1.7401702     5.142347 
        8.57   -1.8832732    1.6379046    5.6424894 
        8.58   -1.8844393    1.5899605    5.8744301 
        8.59    -1.884348    1.6110138    5.7648462 
         8.6   -1.8830795    1.6644941    5.4812105 
        8.61   -1.8807459    1.7096178     5.219432 
        8.62   -1.8809839    1.7291268     5.062615 
        8.63   -1.8824117    1.7413945    4.9385076 
        8.64   -1.8834609    1.7591526    4.7952917 
        8.65   -1.8833305    1.7808474     4.643476 
        8.66   -1.8828082    1.8080861    4.4795821 
        8.67    -1.884265    1.8368027    4.3219992 
        8.68   -1.8845175    1.8450192    4.2714518 
        8.69   -1.8838256    1.8374734    4.3005834 
         8.7   -1.8842168    1.8453472    4.2618374 
        8.71   -1.8831907    1.8690738    4.1536376 
        8.72   -1.8829302    1.8906883    4.0549392 
        8.73   -1.8822937    1.9022959    4.0102846 
        8.74   -1.8837219    1.8915586    4.0749851 
        8.75   -1.8838217    1.8654677     4.222236 
        8.76   -1.8842165    1.8505403     4.327054 
        8.77   -1.8831972    1.8466211     4.388235 
        8.78   -1.8833463    1.8338649    4.4892507 
        8.79   -1.8832149    1.7987182    4.6920944 
         8.8   -1.8825207    1.7498201    4.9513555 
        8.81    -1.881847    1.7307503    5.0639348 
        8.82   -1.8808505    1.7599925    4.9465377 
        8.83   -1.8811433    1.7953789    4.7898967 
        8.84   -1.8795587    1.8005609    4.7680892 
        8.85   -1.8792537    1.7898771    4.8115104 
        8.86   -1.8802918    1.8042893    4.7326459 
        8.87   -1.8802019    1.8506291     4.503746 
        8.88   -1.8799576      1.89453    4.2814394 
        8.89   -1.8796889    1.9191871    4.1518975 
         8.9   -1.8811512     1.925232    4.1208026 
        8.91   -1.8810159    1.8949121     4.274674 
        8.92   -1.8821667    1.8352584    4.5731155 
        8.93   -1.8816254    1.7732663    4.8895718 
        8.94   -1.8820123     1.731603    5.1061025 
        8.95   -1.8829505    1.7151601    5.1941752 
        8.96    -1.882565    1.7064469    5.2357715 
        8.97    -1.882825    1.6996257    5.2625592 
        8.98   -1.8827107     1.694113    5.2874974 
        8.99   -1.8829769    1.6796512    5.3585499 
           9   -1.8838775    1.6541163    5.4822484 
        9.01   -1.8846371    1.6325367    5.5829821 
        9.02   -1.8834646    1.6368243     5.555169 
        9.03   -1.8837199    1.6684644    5.3825535 
        9.04   -1.8836338    1.7183362    5.1184603 
        9.05    -1.881685    1.7385567    4.9920334 
        9.06   -1.8808491    1.7119916    5.0850721 
        9.07   -1.8829005    1.6855566    5.1880984 
        9.08   -1.8833186    1.6976601    5.1317321 
        9.09   -1.8833415    1.7309523    4.9826575 
         9.1   -1.8822801    1.7652253    4.8278934 
        9.11    -1.882704     1.805009    4.6486942 
        9.12   -1.8840125    1.8246136    4.5659409 
        9.13   -1.8842425    1.8165293    4.6197896 
        9.14   -1.8844908     1.806057    4.6931709 
        9.15   -1.8843671    1.8039049    4.7318017 
        9.16   -1.8852857    1.8010133    4.7699223 
        9.17    -1.885156    1.7872556    4.8573927 
        9.18    -1.883979    1.7587473    5.0134906 
        9.19   -1.8843692    1.7179499    5.2218747 
         9.2    -1.883829    1.6745053    5.4389837 
        9.21   -1.8831834    1.6472836    5.5763582 
        9.22   -1.8828124    1.6365451    5.6309579 
        9.23   -1.8854259    1.6321302    5.6428017 
        9.24   -1.8845071    1.6367322    5.6105151 
        9.25   -1.8853111    1.6511893    5.5256076 
        9.26   -1.8851725    1.6569039    5.4797865 
        9.27   -1.8851389    1.6521294    5.4806678 
        9.28    -1.885132    1.6611676    5.4196041 
        9.29   -1.8855533    1.6867961    5.2837166 
         9.3   -1.8858182    1.7039964    5.1874631 
        9.31   -1.8843591     1.708333    5.1565155 
        9.32   -1.8834539    1.7170736    5.1138416 
        9.33   -1.8837414    1.7221116    5.0951288 
        9.34   -1.8839739    1.7056904    5.1795602 
        9.35   -1.8844646    1.6925566    5.2546792 
        9.36   -1.8861908    1.7062258    5.2118017 
        9.37   -1.8853221    1.7206411    5.1703937 
        9.38   -1.8854193    1.7024722    5.2680526 
        9.39   -1.8861646    1.6824701    5.3637507 
         9.4   -1.8863219    1.6936366     5.309715 
        9.41   -1.8859351    1.7127897    5.2088695 
        9.42   -1.8856563    1.7264806     5.125875 
        9.43   -1.8859233    1.7440975    5.0252126 
        9.44    -1.885026    1.7602387    4.9371529 
        9.45   -1.8837068     1.763054    4.9121863 
        9.46   -1.8838195    1.7664923    4.8822628 
        9.47   -1.8838507    1.7828714    4.7934586 
        9.48   -1.8842516      1.79057    4.7434594 
        9.49   -1.8846391    1.7786712    4.7886813 
         9.5   -1.8833677    1.7476712    4.9350728 
        9.51   -1.8829502    1.6812169    5.2435434 
        9.52   -1.8811424    1.6250635    5.5021714 
        9.53   -1.8807116    1.6643651    5.3289072 
        9.54   -1.8819239    1.7308003    5.0271885 
        9.55    -1.882272    1.7697783    4.8527849 
        9.56   -1.8826635    1.8027708    4.7185172 
        9.57   -1.8817707    1.8272507    4.6413808 
        9.58   -1.8816334    1.8224091    4.7121328 
        9.59   -1.8801943     1.790116    4.9243912 
         9.6   -1.8799176    1.7380244    5.2306382 
        9.61   -1.8811853    1.6884593    5.5165742 
        9.62   -1.8823874    1.6745489    5.6288624 
        9.63   -1.8817957    1.6775913    5.6527332 
        9.64   -1.8828417    1.6464758    5.8117844 
        9.65   -1.8823947    1.5816865    6.1057023 
        9.66    -1.882871    1.5429633    6.2554555 
        9.67   -1.8822502    1.5757914    6.0570092 
        9.68   -1.8826953    1.6525768    5.6379361 
        9.69   -1.8825893    1.7194034    5.2614971 
         9.7   -1.8840288    1.7446148    5.0852084 
        9.71   -1.8850176    1.7311443    5.1067587 
        9.72   -1.8843709    1.7216166    5.1386225 
        9.73   -1.8843807    1.7153039    5.1722479 
        9.74   -1.8851334    1.7059163    5.2298494 
        9.75   -1.8833293    1.7149328    5.2215016 
        9.76   -1.8836071    1.7257073    5.2104683 
        9.77    -1.882535    1.7205097    5.2766829 
        9.78   -1.8818762    1.7157877    5.3389914 
        9.79   -1.8800461    1.7204484    5.3513904 
         9.8   -1.8813497     1.738818    5.2804397 
        9.81   -1.8801987    1.7684168    5.1462923 
        9.82   -1.8796992    1.7830406    5.0670693 
        9.83   -1.8790189    1.7637115     5.135234 
        9.84   -1.8787379    1.7354971    5.2406957 
        9.85   -1.8800472    1.7204491    5.2786453 
        9.86   -1.8797694    1.7239936    5.2248612 
        9.87   -1.8801888    1.7564139    5.0357644 
        9.88   -1.8796869    1.7892039    4.8522835 
        9.89   -1.8803358    1.7968094    4.7967812 
         9.9   -1.8798122    1.7757027    4.8915233 
        9.91   -1.8804404    1.7358829    5.0810855 
        9.92   -1.8797612    1.7050736    5.2369917 
        9.93   -1.8806952    1.7082761    5.2394416 
        9.94   -1.8795504    1.7294606    5.1642394 
        9.95   -1.8805798    1.7419938    5.1236191 
        9.96   -1.8784823    1.7512535    5.1056934 
        9.97   -1.8800722    1.7595027    5.0925769 
        9.98   -1.8802175    1.7470568     5.178559 
        9.99   -1.8795424    1.7065786     5.388385 
          10   -1.8801613    1.6638934    5.5938358 
Loop time of 0.891333 on 8 procs for 10000 steps with 125 atoms

Performance: 969334.581 tau/day, 11219.150 timesteps/s
142.0% CPU use with 1 MPI tasks x 8 OpenMP threads

MPI task timing breakdown:
Section |  min time  |  avg time  |  max time  |%varavg| %total
---------------------------------------------------------------
Pair    | 0.54632    | 0.54632    | 0.54632    |   0.0 | 61.29
Neigh   | 0.0029919  | 0.0029919  | 0.0029919  |   0.0 |  0.34
Comm    | 0.049747   | 0.049747   | 0.049747   |   0.0 |  5.58
Output  | 0.015411   | 0.015411   | 0.015411   |   0.0 |  1.73
Modify  | 0.26887    | 0.26887    | 0.26887    |   0.0 | 30.16
Other   |            | 0.007993   |            |       |  0.90

Nlocal:        125.000 ave         125 max         125 min
Histogram: 1 0 0 0 0 0 0 0 0 0
Nghost:        2225.00 ave        2225 max        2225 min
Histogram: 1 0 0 0 0 0 0 0 0 0
Neighs:        18981.0 ave       18981 max       18981 min
Histogram: 1 0 0 0 0 0 0 0 0 0

Total # of neighbors = 18981
Ave neighs/atom = 151.84800
Neighbor list builds = 28
Dangerous builds = 0
unfix nve
reset_timestep 0

### BRING SYSTEM TO REQUIRED STATE ###
variable tdamp equal ${timestep}*100
variable tdamp equal 0.001*100
variable pdamp equal ${timestep}*1000
variable pdamp equal 0.001*1000
fix npt all npt temp ${T} ${T} ${tdamp} iso ${p} ${p} ${pdamp}
fix npt all npt temp 2.25 ${T} ${tdamp} iso ${p} ${p} ${pdamp}
fix npt all npt temp 2.25 2.25 ${tdamp} iso ${p} ${p} ${pdamp}
fix npt all npt temp 2.25 2.25 0.1 iso ${p} ${p} ${pdamp}
fix npt all npt temp 2.25 2.25 0.1 iso 3 ${p} ${pdamp}
fix npt all npt temp 2.25 2.25 0.1 iso 3 3 ${pdamp}
fix npt all npt temp 2.25 2.25 0.1 iso 3 3 1
run 10000
Last active /omp style is pair_style lj/cut/omp
Per MPI rank memory allocation (min/avg/max) = 10.63 | 10.63 | 10.63 Mbytes
Time TotEng Temp Press 
          10   -1.8801613    1.6638934    5.5938358 
       10.01   -1.8767782    1.6566692    5.6296343 
       10.02   -1.8606204    1.6802162    5.5292894 
       10.03   -1.8351411    1.7033456    5.4294284 
       10.04   -1.7973689    1.7407502    5.2787224 
       10.05   -1.7497547    1.8176954    4.9770792 
       10.06   -1.6944466    1.8909391    4.7237618 
       10.07   -1.6365356    1.9186468     4.691263 
       10.08   -1.5819709    1.9219649    4.7596847 
       10.09   -1.5341515     1.942955    4.7203045 
        10.1   -1.4943993    2.0003358    4.4831245 
       10.11   -1.4596793    2.0686205       4.1707 
       10.12   -1.4322955     2.112304     3.945706 
       10.13   -1.4084505    2.1267727    3.8456315 
       10.14   -1.3901094    2.1198393    3.8396828 
       10.15   -1.3757055    2.0998643    3.8950343 
       10.16   -1.3607929    2.0735155    3.9880897 
       10.17    -1.347551     2.037946    4.1219842 
       10.18   -1.3353118    1.9941908    4.2843018 
       10.19   -1.3195609    1.9522494    4.4297789 
        10.2   -1.3037461    1.9316254     4.468576 
       10.21   -1.2819439    1.9305719    4.4231441 
       10.22   -1.2564363    1.9211921    4.4095966 
       10.23   -1.2294982    1.8977768     4.441748 
       10.24   -1.2006521    1.8858139    4.4045582 
       10.25   -1.1698408     1.916341    4.1723459 
       10.26   -1.1344158    1.9794776    3.8038681 
       10.27   -1.0973936    2.0308592    3.4870053 
       10.28   -1.0596346    2.0513254    3.3012243 
       10.29   -1.0228526    2.0610568    3.1635261 
        10.3  -0.98732082    2.0822074     2.991728 
       10.31  -0.95221268    2.0926292    2.8824806 
       10.32  -0.91831671    2.0594605    2.9620416 
       10.33  -0.88814672    2.0172593    3.0849785 
       10.34  -0.85729072    2.0322923    3.0020997 
       10.35  -0.82159548    2.0763821    2.8314004 
       10.36   -0.7844132    2.0943854    2.7800856 
       10.37  -0.74925077    2.0813015    2.8592484 
       10.38  -0.71348358    2.0535335    3.0019406 
       10.39  -0.67779865    2.0415663    3.0859417 
        10.4  -0.64119559    2.0661016    3.0352686 
       10.41   -0.6003587    2.1124524    2.9140524 
       10.42  -0.56165006    2.1427027    2.8564398 
       10.43  -0.52053581    2.1391412    2.9266223 
       10.44  -0.48368212    2.1395581    2.9683533 
       10.45  -0.44601237    2.1770876    2.8696761 
       10.46  -0.40867079    2.2053939    2.8027953 
       10.47  -0.37338663    2.2090521    2.8255366 
       10.48  -0.33982409    2.2104094    2.8587229 
       10.49  -0.30617674    2.2128892    2.8899602 
        10.5  -0.27549789       2.2226    2.8912822 
       10.51  -0.24400422    2.2575286    2.8059961 
       10.52  -0.21247203    2.3129236    2.6593953 
       10.53  -0.18415666    2.3431187    2.6207553 
       10.54  -0.15792304    2.2787431    2.9335716 
       10.55  -0.13916697    2.1590343    3.4305968 
       10.56  -0.12086285    2.1384007    3.5608853 
       10.57 -0.099853904    2.2043621    3.3702198 
       10.58 -0.076401772    2.2492136    3.2419199 
       10.59 -0.050239427    2.2741774     3.177263 
        10.6 -0.025741057    2.3057881     3.076825 
       10.61 -0.0032601578     2.347277    2.9305054 
       10.62  0.018945448    2.3966249    2.7557719 
       10.63  0.037595329    2.4524936    2.5663156 
       10.64  0.050052885    2.4783983     2.494686 
       10.65  0.056220947    2.4395901    2.6604739 
       10.66  0.056143907    2.3687839     2.943242 
       10.67  0.050503393    2.3050683    3.1963998 
       10.68   0.04301879    2.2526546    3.3972528 
       10.69  0.035600017    2.2170187     3.522616 
        10.7  0.028347945     2.195504    3.5792594 
       10.71    0.0218469    2.1822877    3.5878861 
       10.72  0.015471548    2.1915434    3.5034627 
       10.73  0.013070809    2.2218679     3.343175 
       10.74  0.013278227    2.2411137    3.2213419 
       10.75  0.014039618    2.2313924    3.1976013 
       10.76  0.015757666    2.2199096     3.177606 
       10.77  0.021651901    2.2478701    3.0275383 
       10.78  0.030634955    2.2883202    2.8419222 
       10.79  0.041968391    2.3103276    2.7287349 
        10.8  0.054770814    2.3252275    2.6507053 
       10.81   0.06718799     2.351952    2.5431769 
       10.82  0.081603789    2.3901965    2.4134388 
       10.83   0.09588803    2.4095126    2.3630029 
       10.84   0.10801885    2.3833394    2.4752169 
       10.85   0.11845768    2.3345697    2.6666513 
       10.86   0.12830897    2.3114255     2.769666 
       10.87   0.13846861    2.3311519    2.7247691 
       10.88   0.14867272    2.3569615    2.6566707 
       10.89   0.15872762    2.3560256    2.6785357 
        10.9   0.16462752    2.3397755    2.7511742 
       10.91   0.16960173    2.3201653    2.8383253 
       10.92   0.17372077    2.2936723    2.9496695 
       10.93   0.17750744    2.2533832    3.1059668 
       10.94   0.18169444    2.2013821    3.2950609 
       10.95   0.18674943    2.2076904    3.2859474 
       10.96   0.19545344    2.2867569    3.0397586 
       10.97   0.20520918    2.3470638    2.8584055 
       10.98   0.21353579    2.3611023    2.8311019 
       10.99   0.21955636    2.3568411    2.8598015 
          11   0.22431526    2.3566736    2.8672082 
       11.01   0.22451471    2.3540554    2.8695502 
       11.02   0.22466787    2.3411127    2.9003335 
       11.03   0.22160468    2.3193897    2.9529683 
       11.04    0.2150574    2.2952487    3.0071136 
       11.05   0.20647418    2.2707396    3.0579163 
       11.06   0.19684662    2.2410088    3.1212031 
       11.07   0.18745972    2.2081977    3.1881757 
       11.08   0.17686031    2.1847901    3.2122348 
       11.09   0.16934687    2.1954509    3.1194464 
        11.1   0.16133396    2.2149669    2.9941944 
       11.11   0.15363042    2.1899428    3.0151257 
       11.12   0.15037553    2.1558436    3.0724107 
       11.13   0.14808043     2.166659    2.9828845 
       11.14   0.15067856    2.2099261     2.788871 
       11.15   0.15313849    2.2551061    2.5893166 
       11.16   0.15811033    2.2772128    2.4746221 
       11.17    0.1639061    2.2895776    2.4022561 
       11.18   0.16847617     2.311016    2.3102824 
       11.19   0.17412048    2.3176029    2.2799405 
        11.2   0.17729604    2.2984018    2.3450478 
       11.21   0.17992422    2.2608959    2.4828302 
       11.22    0.1832454    2.2175802     2.648893 
       11.23     0.187524     2.190312    2.7646218 
       11.24   0.19232119    2.2135891    2.7132574 
       11.25   0.20186036    2.2831214    2.5142836 
       11.26     0.211064    2.3488731    2.3279517 
       11.27   0.21826596    2.3891942    2.2288309 
       11.28   0.22461265     2.418557    2.1768307 
       11.29   0.22477439    2.4427701    2.1519187 
        11.3   0.21896832    2.4304543    2.2595716 
       11.31   0.20744922     2.355236    2.5825446 
       11.32   0.19171247    2.2672638    2.9493503 
       11.33   0.17528474    2.2034468     3.226755 
       11.34   0.15984095    2.1576944    3.4227422 
       11.35   0.14459726    2.1382844    3.5067503 
       11.36   0.12895977    2.1195129    3.5635361 
       11.37   0.11568089     2.093983    3.6239747 
       11.38   0.10231652    2.1173062    3.5088924 
       11.39  0.092107428    2.1675436    3.2985085 
        11.4   0.08206902    2.1914144    3.1711615 
       11.41  0.071128996    2.1998858    3.0977545 
       11.42  0.060962855    2.2099343     3.027776 
       11.43  0.051428144    2.2137666    2.9860256 
       11.44  0.040707152    2.2054854     2.987148 
       11.45  0.030693259    2.1873525    3.0206824 
       11.46  0.021082067     2.167494    3.0543063 
       11.47   0.01173251    2.1450388    3.0861387 
       11.48 0.0052365623    2.1375845    3.0596938 
       11.49 5.717084e-06    2.1661706    2.9079021 
        11.5 -0.0034767368    2.2072391    2.7158774 
       11.51 -0.0053737764     2.240819    2.5572832 
       11.52 -0.0073348317    2.2533998    2.4779414 
       11.53 -0.0085667305    2.2372877    2.4998046 
       11.54   -0.0100782    2.2340717    2.4794714 
       11.55  -0.01210937    2.2633041    2.3525602 
       11.56  -0.01383437    2.2819737    2.2683197 
       11.57 -0.016802342    2.2811087    2.2626223 
       11.58  -0.02105979    2.2781795    2.2811387 
       11.59 -0.028262145    2.2602438    2.3635048 
        11.6 -0.035980833    2.2066774    2.5760374 
       11.61 -0.042185922    2.1349492    2.8523122 
       11.62 -0.044398281     2.110179     2.967749 
       11.63 -0.044926758    2.1464865     2.869721 
       11.64  -0.04382321    2.1981324    2.7206323 
       11.65 -0.044351435    2.2295968    2.6495495 
       11.66 -0.040636398    2.2116116    2.7673243 
       11.67 -0.037845511    2.1579995    3.0173846 
       11.68 -0.030913221    2.1167475    3.2343662 
       11.69 -0.019512595     2.115572    3.3150893 
        11.7 -0.0063196413    2.1550183    3.2531618 
       11.71  0.009637638    2.1931137    3.1961748 
       11.72  0.029493003    2.2077609    3.2256557 
       11.73  0.051037314    2.2320089    3.2304609 
       11.74  0.074926198     2.291785     3.129097 
       11.75  0.097097691    2.3505382    3.0509889 
       11.76    0.1170684    2.3425241     3.225281 
       11.77   0.13704986    2.2682074    3.6443779 
       11.78   0.15894027    2.1995346    4.0390854 
       11.79   0.18126443    2.2165657    4.1081764 
        11.8   0.20331093    2.3043615    3.8944142 
       11.81   0.22785784    2.3959689    3.6422065 
       11.82   0.24688124    2.4567028    3.4771293 
       11.83   0.25985165    2.4760568     3.442728 
       11.84    0.2662368    2.4642199    3.5003334 
       11.85   0.26506105    2.4451605    3.5556494 
       11.86   0.25731612    2.4487008    3.4980485 
       11.87   0.24007709    2.4810023    3.3023215 
       11.88   0.21173936     2.505959    3.0996636 
       11.89   0.17417674    2.4960776    2.9997424 
        11.9   0.12465208    2.4604041    2.9770933 
       11.91  0.064232868    2.3961962    3.0440436 
       11.92 -0.0015221327    2.3041272    3.1998594 
       11.93 -0.066616713    2.2274212    3.2938303 
       11.94  -0.13148188    2.2062229     3.180401 
       11.95  -0.19421488    2.2142665    2.9552406 
       11.96  -0.25200511    2.2138528    2.7638742 
       11.97  -0.30612631    2.2039622    2.6198839 
       11.98  -0.35417071    2.1959187    2.4933443 
       11.99  -0.39606712    2.1892611    2.3891532 
          12  -0.43269916    2.1744786     2.341072 
       12.01  -0.46362933    2.1455738    2.3711709 
       12.02  -0.48717721    2.1031144    2.4782275 
       12.03  -0.50519457    2.0536749    2.6331928 
       12.04  -0.51499881    2.0157637    2.7694059 
       12.05  -0.51816697    2.0090185     2.812007 
       12.06  -0.51311745    2.0209255      2.80455 
       12.07  -0.50200358      2.02158    2.8474584 
       12.08  -0.48597968    2.0200362    2.9070384 
       12.09  -0.46407022    2.0501242    2.8669171 
        12.1  -0.43834705    2.1050044    2.7513524 
       12.11  -0.40697779    2.1404255    2.7211118 
       12.12  -0.37236176    2.1413021    2.8274398 
       12.13  -0.33534097    2.1286233    2.9914437 
       12.14  -0.29706445    2.1291852    3.1100612 
       12.15  -0.25462491     2.167625    3.0976828 
       12.16  -0.21018479    2.2376311    2.9803175 
       12.17  -0.16485404    2.2689216    3.0071678 
       12.18    -0.121773    2.2656586     3.160631 
       12.19 -0.082993402    2.2893038    3.2226407 
        12.2 -0.046141047    2.3111824    3.2948661 
       12.21 -0.014174438    2.2952805    3.4990629 
       12.22  0.014046864    2.2674793    3.7416808 
       12.23  0.039697749    2.2576253    3.9112782 
       12.24   0.06184284    2.2617533    4.0128424 
       12.25  0.077717789    2.2664346    4.0837038 
       12.26  0.093503736    2.2883332    4.0693881 
       12.27   0.10444168    2.3415192    3.9173859 
       12.28   0.11018881    2.3794597    3.7963087 
       12.29   0.11222039    2.3795233    3.7933281 
        12.3   0.10872331    2.3638189    3.8314258 
       12.31  0.099333197    2.3435742    3.8720035 
       12.32  0.085992667    2.3152694     3.931697 
       12.33  0.073389613    2.2769231    4.0219675 
       12.34  0.058589095    2.2300167    4.1240835 
       12.35  0.042956826    2.2055136    4.1210284 
       12.36  0.028583015    2.2023164    4.0142117 
       12.37  0.012993855    2.2109567    3.8380927 
       12.38 -0.0011330688    2.2270227    3.6208562 
       12.39 -0.016893539    2.2432022    3.3938049 
        12.4 -0.029349537    2.2574505    3.1783942 
       12.41 -0.041285237    2.2871233    2.9204323 
       12.42 -0.053065212    2.3145958    2.6876307 
       12.43 -0.068042562    2.3049233    2.5981137 
       12.44 -0.081128157    2.2637582    2.6339097 
       12.45 -0.094015204     2.223666    2.6691102 
       12.46  -0.10637898    2.2262383    2.5527002 
       12.47  -0.11704726    2.2693206     2.295929 
       12.48  -0.12757176    2.3065605    2.0658438 
       12.49  -0.13770504    2.3187688    1.9405238 
        12.5  -0.14941473    2.2959814    1.9568122 
       12.51  -0.15915531    2.2344089    2.1286078 
       12.52  -0.17136308    2.1670186    2.3316267 
       12.53  -0.17988886     2.117721    2.4819987 
       12.54  -0.18394777    2.0920188    2.5532313 
       12.55  -0.18294337    2.1044189    2.4964782 
       12.56  -0.17758227    2.1341977    2.3814875 
       12.57  -0.16963566    2.1688975    2.2503772 
       12.58  -0.15572709    2.2286958    2.0458367 
       12.59  -0.13943616    2.2912971    1.8447647 
        12.6  -0.12085343    2.3211244    1.7733996 
       12.61   -0.1017329    2.3114819    1.8570066 
       12.62 -0.082360098    2.2764275    2.0480547 
       12.63 -0.061646114    2.2481109    2.2395628 
       12.64 -0.035003764    2.2294756    2.4235264 
       12.65 -0.0037587971    2.2271371    2.5732394 
       12.66  0.035343203    2.2440155    2.6800229 
       12.67  0.082459628    2.2687866    2.7801438 
       12.68   0.13833911    2.3018391    2.8769366 
       12.69   0.20443437    2.3280248    3.0265675 
        12.7   0.28054273    2.3325999    3.2772338 
       12.71   0.36159491    2.3303192    3.5660824 
       12.72   0.44631277    2.3720873     3.716856 
       12.73   0.53052103    2.4001981    3.9071609 
       12.74   0.61159649    2.3952301     4.184762 
       12.75   0.68280492    2.4158508    4.3269093 
       12.76   0.74343862    2.5005583    4.1901253 
       12.77   0.79233439    2.6391843    3.8127451 
       12.78   0.82492051    2.7484006    3.4823225 
       12.79   0.83834563     2.790006    3.3338055 
        12.8   0.83226201    2.7865966    3.2924537 
       12.81    0.8069972    2.7661055    3.2622493 
       12.82   0.76466963    2.7381214    3.2128971 
       12.83   0.70592265    2.7049692    3.1411844 
       12.84   0.63621212    2.6702479    3.0480006 
       12.85   0.55894988    2.6296251    2.9590958 
       12.86   0.47743011    2.5733682    2.9192949 
       12.87   0.39533933    2.5164281    2.8922042 
       12.88   0.31838715     2.473592    2.8423754 
       12.89   0.24934397    2.4273684    2.8348078 
        12.9   0.18858622    2.3633074    2.9167558 
       12.91   0.13517493    2.3045843    3.0024031 
       12.92  0.092163621    2.2709242    3.0180752 
       12.93  0.053441551    2.2664437    2.9344939 
       12.94  0.020625042    2.2846033     2.772544 
       12.95 -0.010979911      2.30935    2.5810275 
       12.96 -0.039904621    2.3258401    2.4151657 
       12.97 -0.067383587    2.3226152     2.316367 
       12.98 -0.094749046     2.301902    2.2797503 
       12.99  -0.12240362    2.2705969    2.2845264 
          13  -0.14836137    2.2332056    2.3198395 
       13.01  -0.17166376    2.1925998    2.3780795 
       13.02  -0.19046201    2.1553939    2.4401685 
       13.03  -0.20594999    2.1283959    2.4834234 
       13.04   -0.2187179    2.1163674    2.4941118 
       13.05  -0.22684814    2.1102303    2.5061335 
       13.06  -0.23098686    2.1042914    2.5367891 
       13.07  -0.23052538    2.1180274    2.5239564 
       13.08  -0.22613635    2.1292627    2.5444807 
       13.09   -0.2177109    2.0838262    2.7792584 
        13.1  -0.20314945    2.0087685    3.1345431 
       13.11  -0.18302668    1.9736618    3.3637123 
       13.12   -0.1551175    1.9832844    3.4398678 
       13.13  -0.11775495    2.0163632    3.4337324 
       13.14 -0.072508955    2.0704219    3.3562874 
       13.15  -0.01916969    2.1608721    3.1623962 
       13.16  0.040746117    2.2703692    2.9130454 
       13.17   0.10366532    2.3548988    2.7527494 
       13.18   0.16677863    2.4182186    2.6666715 
       13.19   0.22374859    2.4722145    2.6081047 
        13.2   0.27177851    2.5036347    2.6194087 
       13.21   0.31038077    2.5097098     2.711706 
       13.22   0.33945303    2.5053774    2.8355901 
       13.23   0.35948504    2.5069461    2.9361034 
       13.24   0.37201582    2.4941553    3.0773359 
       13.25   0.37622293    2.4609706    3.2689442 
       13.26   0.37406629    2.4548527    3.3473928 
       13.27   0.36593651    2.4670063    3.3411128 
       13.28   0.34953777    2.4471791    3.4184568 
       13.29   0.32516473    2.4061435    3.5437979 
        13.3   0.29704131    2.3807507    3.5930533 
       13.31   0.26177138     2.374039    3.5458441 
       13.32   0.22054454     2.404822    3.3470427 
       13.33   0.17299191    2.4034406    3.2459348 
       13.34   0.12037136    2.2904827    3.5174784 
       13.35  0.067769268    2.1718874    3.8025373 
       13.36  0.019036659    2.1124527    3.8703806 
       13.37 -0.029014917    2.0998298    3.7541287 
       13.38 -0.073450542    2.1186265    3.5188514 
       13.39  -0.11293996    2.1410732    3.2734966 
        13.4  -0.14661655    2.1228573    3.1765604 
       13.41  -0.17506207     2.090456    3.1388107 
       13.42  -0.19850635    2.0947779    2.9836109 
       13.43  -0.21556154    2.1243027     2.746449 
       13.44  -0.23021614    2.1662299    2.4699033 
       13.45  -0.24164879    2.2075178    2.2083884 
       13.46  -0.24921265    2.2337839    2.0204846 
       13.47  -0.25646748    2.2355812     1.938289 
       13.48  -0.26036775    2.2192589    1.9420761 
       13.49  -0.26482766    2.2310228     1.870349 
        13.5  -0.26623807    2.2610794    1.7608429 
       13.51  -0.26595674    2.2707501    1.7463365 
       13.52   -0.2655602    2.2512659    1.8565752 
       13.53  -0.26311279    2.2188706    2.0339868 
       13.54   -0.2586206    2.2055585    2.1619355 
       13.55  -0.25250834    2.2211717     2.202833 
       13.56  -0.24502899    2.2235951    2.3002365 
       13.57  -0.23483727    2.1983733     2.505884 
       13.58  -0.22233449    2.1727536    2.7206048 
       13.59  -0.20791825    2.1697881     2.855818 
        13.6  -0.19221426    2.1856932     2.920452 
       13.61  -0.17334512    2.1917487    3.0196768 
       13.62  -0.15296559    2.1659305    3.2308871 
       13.63  -0.13007331    2.1501179    3.4089362 
       13.64  -0.10432563     2.194763    3.3756485 
       13.65 -0.078373374    2.2632835    3.2531417 
       13.66 -0.053108999    2.3178136    3.1798176 
       13.67 -0.029121969     2.333587    3.2479465 
       13.68 -0.0095804797    2.3071891    3.4640778 
       13.69  0.010351842    2.2624925    3.7404078 
        13.7  0.028685719    2.2345987     3.937122 
       13.71  0.048750584    2.2496702    3.9591068 
       13.72  0.066880669    2.3037175    3.8207953 
       13.73  0.082181242    2.3397038    3.7307998 
       13.74  0.095133268    2.3240197    3.8107463 
       13.75   0.10492294    2.3252998    3.8129991 
       13.76    0.1132965    2.4003353    3.5352091 
       13.77   0.11273078    2.4878588    3.1839825 
       13.78   0.10807872     2.540854    2.9378219 
       13.79  0.088672549    2.5562183     2.798308 
        13.8   0.05566276    2.5428424    2.7377969 
       13.81  0.010498916    2.5133482    2.7182403 
       13.82 -0.045723162     2.456255    2.7878225 
       13.83  -0.11170716    2.3637422    2.9811505 
       13.84   -0.1793098      2.27824     3.161468 
       13.85  -0.24524631    2.2078137    3.3023026 
       13.86   -0.3053499    2.1296574    3.4852383 
       13.87  -0.35615031    2.0628376    3.6402847 
       13.88  -0.39753358    2.0240774    3.6998866 
       13.89  -0.42890009    1.9934292    3.7301651 
        13.9  -0.45131208    1.9794906    3.6985698 
       13.91  -0.46585641    2.0107114    3.5095822 
       13.92  -0.47488121    2.0361224    3.3543083 
       13.93  -0.47632124    2.0204478    3.3711307 
       13.94  -0.47297388    2.0118742    3.3843007 
       13.95  -0.46537118    2.0404677    3.2784171 
       13.96  -0.45151192    2.0918878    3.1055954 
       13.97   -0.4334253    2.1387389    2.9682728 
       13.98  -0.41347362     2.139426    3.0145773 
       13.99  -0.39328223    2.1147307    3.1610568 
          14  -0.36784366     2.124199     3.188977 
       14.01  -0.34023588    2.1950119    2.9923054 
       14.02  -0.31169171    2.2896015    2.7124314 
       14.03  -0.28266287    2.3471403    2.5814967 
       14.04  -0.25942772    2.3334658    2.7236514 
       14.05  -0.23965128    2.2603367    3.0972919 
       14.06  -0.22060614    2.1825805    3.4958106 
       14.07  -0.20354307    2.1508397    3.7161098 
       14.08  -0.18231354    2.1753121    3.7116906 
       14.09  -0.16159634    2.2606454    3.4606563 
        14.1  -0.14212358    2.3372437    3.2231868 
       14.11  -0.12665296    2.3502301    3.2044874 
       14.12  -0.11314751    2.3205949    3.3358374 
       14.13   -0.1037206     2.304368    3.4122445 
       14.14 -0.098869523     2.326345    3.3466594 
       14.15 -0.095417122    2.3290122    3.3489315 
       14.16 -0.093595736    2.3038648    3.4479649 
       14.17 -0.094813077    2.2867251    3.5088971 
       14.18  -0.09839881    2.3006076    3.4497144 
       14.19  -0.10450997    2.3078171    3.4079761 
        14.2  -0.11425342    2.2784831    3.4909782 
       14.21  -0.12505715    2.2388191    3.6054002 
       14.22  -0.13649456    2.2231475    3.6230975 
[...]
   27270  -0.17100043    2.3288193    3.1685617   0.64421217 
   27280  -0.17253977    2.3471491    3.1416572   0.64554203 
   27290  -0.17757306    2.3559629    3.1458886   0.64682747 
   27300  -0.18489755    2.3233262    3.2987158   0.64806758 
   27310  -0.19374287    2.2648014     3.537221   0.64924389 
   27320  -0.19925165    2.2746666    3.5224326   0.65033085 
   27330  -0.20683953    2.3218711     3.354142   0.65133084 
   27340  -0.21560929    2.3300031     3.314715   0.65226423 
   27350  -0.22753215    2.3153988     3.351497   0.65313831 
   27360  -0.23998248    2.3081306    3.3610558    0.6539507 
   27370  -0.25344034    2.2969173    3.3804977   0.65470085 
   27380  -0.27202494    2.2832363    3.3969592   0.65538764 
   27390  -0.28807106    2.2787175    3.3763542   0.65601051 
   27400  -0.30558194     2.265399    3.3744231   0.65657263 
   27410  -0.32470553    2.2467598    3.3776285   0.65707559 
   27420  -0.34364867    2.2327935    3.3527766   0.65752046 
   27430  -0.36145028    2.2198315    3.3162112   0.65791122 
   27440  -0.38148319    2.2080978    3.2649109   0.65825362 
   27450  -0.39994632    2.2102107    3.1613601   0.65855554 
   27460  -0.41707716    2.2310213    2.9929365    0.6588315 
   27470     -0.43471    2.2433569    2.8587916    0.6591028 
   27480  -0.45269008    2.2458169    2.7667116   0.65938716 
   27490  -0.47262843    2.2466259    2.6879608   0.65969706 
   27500  -0.49370503    2.2437181    2.6366627   0.66004243 
   27510  -0.51511045    2.2456752    2.5923494    0.6604302 
   27520  -0.54029486    2.2178684    2.6798567   0.66086434 
   27530  -0.56595023    2.1341614    2.9919519    0.6613319 
   27540  -0.59126844    2.0271621    3.3918206    0.6617932 
   27550  -0.61427976    1.9724248    3.5858993   0.66219928 
   27560  -0.63419297    1.9886132    3.4988344   0.66252613 
   27570  -0.65126814    2.0212979    3.3353983   0.66278358 
   27580  -0.66591115    2.0406929    3.2163848   0.66299252 
   27590  -0.68048921    2.0439466     3.157934   0.66316905 
   27600   -0.6892437    2.0271174    3.1854772   0.66332072 
   27610  -0.69529137    2.0075025    3.2330599   0.66344496 
   27620  -0.69727299    2.0180369    3.1846077   0.66353723 
   27630  -0.69201033    2.0470216    3.0918214   0.66360361 
   27640  -0.68221585    2.0583985     3.087838   0.66365494 
   27650  -0.66547979     2.052594    3.1742704    0.6636918 
   27660  -0.64176456     2.058258    3.2414818   0.66370427 
   27670  -0.60752419    2.0807451     3.270843   0.66368388 
   27680  -0.56568896    2.0958378    3.3459652     0.663626 
   27690  -0.51559392    2.0915065    3.5070939   0.66352035 
   27700  -0.46034396    2.1026352    3.6126511   0.66334764 
   27710  -0.40037977    2.1688811    3.5082935   0.66309625 
   27720  -0.33720214    2.2763957    3.2430512    0.6627799 
   27730  -0.27349946    2.3811976    2.9836567   0.66243201 
   27740  -0.21183947    2.4514554    2.8518452   0.66208537 
   27750  -0.16071221    2.4853902    2.8441164   0.66175736 
   27760  -0.11949869    2.5001577    2.8936285   0.66144956 
   27770 -0.087626483    2.5062159    2.9549258   0.66115573 
   27780 -0.064397229    2.5059157    3.0153015   0.66086771 
   27790 -0.053664245    2.4983816    3.0720641   0.66057757 
   27800 -0.050346189    2.4886532    3.1153633   0.66027788 
   27810 -0.055366792     2.486938    3.1108903   0.65996335 
   27820 -0.068020805    2.4813257    3.1080085   0.65963407 
   27830 -0.085401045    2.4441653    3.2145788   0.65928919 
   27840  -0.11167234    2.3699383    3.4434956   0.65891449 
   27850  -0.14157841    2.2904243    3.6778289   0.65848115 
   27860   -0.1732777    2.2581296    3.7199895   0.65796086 
   27870  -0.20926357     2.278346    3.5443171   0.65734895 
   27880  -0.24482078    2.2929905    3.3728802   0.65666632 
   27890  -0.28421996    2.2758722    3.3064564   0.65593486 
   27900   -0.3235809     2.236033    3.3242863   0.65516377 
   27910   -0.3636263    2.1894696    3.3677955   0.65435161 
   27920  -0.40291973    2.1487011    3.3906301   0.65349332 
   27930  -0.44079933    2.1252944    3.3536081   0.65258667 
   27940  -0.47656543     2.095428    3.3476145    0.6516357 
   27950  -0.50794379    2.0488025    3.4153719   0.65064087 
   27960  -0.53516417    2.0063193    3.4792134   0.64959445 
   27970  -0.55567934    1.9927812    3.4519062   0.64848936 
   27980  -0.57169442    2.0001581    3.3626874   0.64732938 
   27990  -0.58035906    1.9815676    3.3845316   0.64612448 
   28000  -0.58299408    1.9382085     3.509199   0.64487215 
   28010  -0.57594353    1.9053518    3.6098461   0.64355789 
   28020  -0.56136602    1.8924821    3.6439303    0.6421694 
   28030  -0.53337734    1.9244321      3.53441   0.64070376 
   28040   -0.4893457    2.0017083    3.2928726   0.63917596 
   28050  -0.42732376    2.1076697    2.9915141    0.6376175 
   28060  -0.35202285    2.2409149    2.6409309   0.63606864 
   28070  -0.26873876     2.350173    2.4163943   0.63457346 
   28080  -0.18682436     2.391753    2.4476793   0.63315962 
   28090  -0.11661715    2.3846538    2.6366192   0.63182359 
   28100 -0.061621224    2.3815719    2.7820351   0.63054229 
   28110 -0.019485783    2.3961706    2.8373159   0.62929669 
   28120  0.011134032    2.3912093    2.9360649   0.62807767 
   28130  0.029575402    2.3411811    3.1648638   0.62687102 
   28140  0.040810754     2.283113    3.3969506   0.62564806 
   28150  0.046411267    2.2594851    3.4842197   0.62438035 
   28160  0.048011278    2.2359953    3.5416315   0.62305515 
   28170  0.047636625    2.2189897    3.5494094   0.62166583 
   28180  0.044752333    2.2312391    3.4317943     0.620213 
   28190  0.042734761    2.2617893    3.2359774   0.61871212 
   28200  0.040931908    2.3045354    2.9929475   0.61718938 
   28210  0.038293183    2.3430081    2.7688682   0.61567638 
   28220  0.032772552    2.3648272    2.6131457   0.61420215 
   28230   0.02375678    2.3549074     2.579698   0.61278643 
   28240   0.01202746    2.3034293    2.6980853   0.61143285 
   28250 -0.0013869147    2.2305013    2.8911946   0.61012627 
   28260 -0.013280514    2.1788756    3.0065836    0.6088426 
   28270 -0.024892448    2.1868561    2.9091534   0.60756833 
   28280 -0.034209028    2.2215998     2.714896   0.60631481 
   28290 -0.041564686    2.2355545    2.5911432   0.60510548 
   28300 -0.046791116    2.2349945     2.523628   0.60395655 
   28310 -0.051096378    2.2500495    2.4127455    0.6028775 
   28320 -0.055588463    2.2919009    2.2241497   0.60188288 
   28330 -0.059030513    2.3206216    2.0974116   0.60099509 
   28340 -0.062044506    2.2983341    2.1588883   0.60022841 
   28350 -0.068078183    2.2461677    2.3284213   0.59957478 
   28360 -0.075899347    2.2099745    2.4432043   0.59901286 
   28370 -0.081671643    2.2141444    2.4173857   0.59852783 
   28380 -0.083915574    2.2488477     2.286206   0.59812213 
   28390 -0.087702181    2.2802635    2.1647202   0.59781126 
   28400 -0.090055001    2.2777059     2.166229   0.59760929 
   28410 -0.094338605    2.2468049    2.2712783   0.59751573 
   28420 -0.099098455    2.2098368    2.4056359   0.59751711 
   28430 -0.099822374     2.181263    2.5223193   0.59759576 
   28440  -0.10093548    2.1622591    2.6088028    0.5977362 
   28450 -0.097671989    2.1436218    2.6982584   0.59792633 
   28460 -0.091207399    2.1276024     2.779878   0.59815437 
   28470 -0.079870742     2.133372    2.7923573   0.59841011 
   28480 -0.060981278    2.1747735    2.6987164   0.59869233 
   28490 -0.038175472    2.2187562     2.612839   0.59901207 
   28500 -0.012473065    2.2206918    2.6883982    0.5993788 
   28510  0.018163597    2.1805717    2.9265939   0.59978238 
   28520  0.050792415    2.1359186    3.1890845     0.600193 
   28530  0.089769677    2.1156901    3.3691147   0.60057709 
   28540   0.13484152    2.1568556    3.3344858   0.60091252 
   28550   0.18679316    2.2617835    3.0811139   0.60120401 
   28560   0.24278097    2.3819122    2.7794523   0.60148312 
   28570   0.29666557    2.4763611    2.5723823   0.60178812 
   28580   0.34552543    2.5304612    2.5135061   0.60214577 
   28590   0.38684426    2.5383914    2.6176612   0.60256356 
   28600   0.41963046    2.5127692    2.8328512   0.60302827 
   28610   0.44310607    2.4699595     3.090438   0.60351223 
   28620   0.46004574    2.4326677    3.3062248   0.60398224 
   28630    0.4716294    2.4268048    3.3901354   0.60441106 
   28640   0.47759749    2.4279911    3.4192973   0.60478665 
   28650   0.47656429    2.4146591    3.4632207   0.60510447 
   28660   0.46995279    2.3858384     3.523665   0.60535875 
   28670   0.45651244    2.3783989    3.4714171   0.60554313 
   28680   0.43737874    2.4256782    3.1971058   0.60566598 
   28690   0.41084617    2.4924635    2.8252545   0.60576216 
   28700   0.37373327    2.5205229    2.5593914   0.60587841 
   28710   0.32452243    2.5100796    2.4062833   0.60604988 
   28720   0.26315802    2.4895097    2.2738337   0.60629789 
   28730   0.19321611    2.4635297    2.1515685   0.60663992 
   28740   0.11772736    2.4317294     2.050985   0.60709209 
   28750  0.037863558    2.3908612    1.9946753   0.60766762 
   28760 -0.038668287    2.3230639    2.0613541   0.60837308 
   28770  -0.10723021    2.2284447    2.2619675   0.60919976 
   28780  -0.16206085    2.1393685    2.4923819   0.61012252 
   28790   -0.2036702    2.0988167    2.5990967    0.6111129 
   28800  -0.23339391    2.0992954    2.5972573   0.61215674 
   28810  -0.25133645    2.0918873    2.6454367   0.61325237 
   28820  -0.26084031    2.0771169    2.7324358   0.61439378 
   28830  -0.26250556    2.0846286    2.7508072   0.61557081 
   28840  -0.26258496    2.1145746    2.6898981   0.61678122 
   28850  -0.25602852    2.1374481    2.6587786    0.6180316 
   28860  -0.24656217    2.1540008    2.6543574   0.61932618 
   28870  -0.23309505    2.1782075    2.6314675   0.62066612 
   28880   -0.2175994    2.2027466    2.6121971   0.62205403 
   28890   -0.2024319    2.2322425    2.5808853   0.62349284 
   28900  -0.18683116    2.2405069    2.6289663   0.62498537 
   28910  -0.16951355    2.2273384    2.7563256   0.62652513 
   28920   -0.1520431    2.2403408    2.7922643   0.62809725 
   28930  -0.13258243    2.2935148    2.6873919   0.62969726 
   28940  -0.11617355    2.3552377    2.5478205    0.6313376 
   28950  -0.10131918     2.391607    2.4999957   0.63303505 
   28960 -0.091149588    2.3924956    2.5809633   0.63479529 
   28970 -0.084190271     2.362329    2.7788544   0.63660754 
   28980 -0.080053626    2.3040694    3.0808851   0.63844533 
   28990 -0.076677154    2.2461587    3.3834332   0.64026937 
   29000 -0.073311141    2.2286487    3.5401095   0.64204095 
   29010 -0.069248454    2.2401261    3.5880558   0.64373838 
   29020 -0.068374412    2.2382252    3.6718269   0.64535319 
   29030 -0.069387062    2.2112445    3.8323268   0.64687349 
   29040 -0.068907063    2.1962752    3.9331114   0.64827921 
   29050 -0.071396742    2.2544489    3.7438686   0.64955988 
   29060 -0.078260561    2.3506278     3.391502   0.65073888 
   29070 -0.093240447    2.4040199    3.1755866   0.65185934 
   29080  -0.11735657    2.3801451    3.2323878   0.65294828 
   29090   -0.1496519    2.3023492    3.4802834   0.65399907 
   29100  -0.18907477    2.2369571    3.6745283   0.65498198 
   29110  -0.23541566    2.1938388    3.7708857   0.65587207 
   29120  -0.28841249    2.1266382    3.9283419   0.65665465 
   29130  -0.34087708    2.0832479    3.9767413   0.65731143 
   29140  -0.39393694    2.1046302    3.7622815   0.65783837 
   29150  -0.44679248    2.1274544    3.5253454   0.65826132 
   29160  -0.50004699    2.0933469    3.4960234   0.65860929 
   29170   -0.5457291    2.0022896    3.6929173   0.65888634 
   29180  -0.58501212    1.9056029    3.9175809   0.65906876 
   29190  -0.61577814    1.9296855    3.7062491   0.65913339 
   29200  -0.63955866    2.0216209    3.2459672   0.65910581 
   29210  -0.65624978    2.0945402    2.8685553   0.65904344 
   29220  -0.66893371    2.1241498    2.6758803   0.65899518 
   29230  -0.67923577    2.1208471    2.6341151   0.65898672 
   29240  -0.68688752    2.1140971    2.6343562   0.65902474 
   29250  -0.68844386    2.1069785      2.66331   0.65910908 
   29260  -0.68793444    2.0955218    2.7245162   0.65923573 
   29270    -0.680167    2.0909614    2.7816846   0.65939693 
   29280  -0.66826088    2.0905468    2.8398609   0.65958503 
   29290  -0.65197029    2.0788056    2.9550915   0.65979161 
   29300  -0.62855117    2.0594836    3.1142238   0.66000141 
   29310  -0.59862025    2.0618448    3.2046051   0.66019475 
   29320  -0.55864756    2.1045064    3.1596315   0.66036055 
   29330  -0.50847542    2.1731766     3.033294   0.66050412 
   29340  -0.44816991    2.2538673    2.8849154   0.66064165 
   29350  -0.37732797    2.3243132     2.804948   0.66079163 
   29360  -0.30288566    2.3699579    2.8415592    0.6609641 
   29370  -0.22653046    2.3905719    2.9891843   0.66115412 
   29380  -0.15324847    2.4010984    3.1763769   0.66134291 
   29390 -0.082893957    2.4245929    3.3086016   0.66150683 
   29400 -0.020918745    2.4660668    3.3541874   0.66162895 
   29410  0.033393559    2.4952708    3.4223929   0.66170203 
   29420  0.075384295    2.4791882     3.625672   0.66171589 
   29430   0.10617944    2.4278952    3.9222896    0.6616442 
   29440   0.12854592    2.4042321    4.0811764   0.66145073 
   29450   0.14192495     2.429907    4.0218934    0.6611159 
   29460   0.14725767    2.4607585    3.9069858   0.66064581 
   29470   0.14530798    2.5025206    3.7227383   0.66005646 
   29480   0.13236135    2.5476159    3.5012683   0.65937229 
   29490   0.11333939    2.5452822     3.441985   0.65862037 
   29500  0.085467107    2.4843087    3.5814355   0.65780847 
   29510   0.05288976    2.4133096    3.7356947   0.65692062 
   29520  0.016456978    2.3930245     3.674562   0.65593966 
   29530 -0.021407409    2.4095187     3.453893    0.6548734 
   29540 -0.057109506    2.4109686    3.2787076    0.6537489 
   29550 -0.093470314    2.3913556    3.1803586   0.65258942 
   29560  -0.12962821    2.3675242    3.1056906   0.65140888 
   29570  -0.16450205    2.3488022    3.0246545   0.65021765 
   29580   -0.1942826    2.3377919    2.9342767    0.6490265 
   29590   -0.2238805    2.3337251    2.8341232   0.64784751 
   29600   -0.2517952    2.3257881    2.7694449    0.6466934 
   29610  -0.27884573    2.2933982    2.8146808   0.64557168 
   29620   -0.3040437    2.2294009    2.9924833   0.64447609 
   29630  -0.32575874    2.1385671    3.2756498   0.64338342 
   29640  -0.34453942    2.0425469    3.5696241   0.64225739 
   29650  -0.35755539    1.9933977    3.6804254    0.6410617 
   29660  -0.36461646    2.0205361    3.5014749   0.63978365 
   29670  -0.36780485    2.0978859    3.1329246   0.63844626 
   29680  -0.36491909    2.1881185    2.7298807   0.63709697 
   29690  -0.35840516    2.2447104     2.469757   0.63578703 
   29700  -0.34956088    2.2507799     2.418486   0.63454978 
   29710  -0.34063203    2.2206818    2.5210348   0.63339223 
   29720  -0.33106303    2.1808237    2.6765189   0.63230155 
   29730  -0.32016286    2.1591514    2.7793547   0.63125819 
   29740  -0.30826185     2.147742    2.8497189     0.630248 
   29750   -0.2914839    2.1320348    2.9383767   0.62926083 
   29760  -0.27088607    2.1374203    2.9546679   0.62828596 
   29770  -0.24604424     2.189508    2.8144571   0.62732235 
   29780  -0.21800688    2.2452827    2.6703441   0.62638655 
   29790  -0.18786528    2.2629087     2.670634   0.62549573 
   29800  -0.15675213    2.2359117    2.8355663   0.62464935 
   29810  -0.12383179     2.185116     3.084933   0.62382624 
   29820 -0.090820404    2.1790309    3.1723742   0.62299635 
   29830 -0.054631831    2.2355939    3.0396471   0.62214892 
   29840 -0.015911409    2.2955023    2.8935729   0.62129889 
   29850  0.023695034    2.3345534    2.8234654   0.62046473 
   29860  0.063378534    2.3216644    2.9352815   0.61965426 
   29870   0.09950705    2.2609193    3.1971855   0.61885289 
   29880   0.13136843    2.2416523    3.2820399    0.6180297 
   29890   0.16553659    2.3485255    2.9085458   0.61717749 
   29900   0.20042038    2.4848487     2.422729   0.61634096 
   29910   0.23074768    2.5810832    2.0833822   0.61558139 
   29920   0.25071339    2.6016285    2.0186037    0.6149416 
   29930   0.26085295    2.5580621    2.1893005   0.61442987 
   29940   0.26152893    2.4915543    2.4470932   0.61402475 
   29950   0.25169549    2.4232143     2.704196    0.6136927 
   29960   0.23604683    2.3674252    2.9015781   0.61340004 
   29970   0.21765574    2.3486837    2.9500153   0.61312166 
   29980   0.19217475    2.3470786    2.9077242   0.61285042 
   29990   0.16237552    2.3330797    2.8789823   0.61259056 
   30000   0.12753012    2.3212909    2.8183213   0.61234641 
Loop time of 5.21508 on 8 procs for 30000 steps with 125 atoms

Performance: 497019.882 tau/day, 5752.545 timesteps/s
97.4% CPU use with 1 MPI tasks x 8 OpenMP threads

MPI task timing breakdown:
Section |  min time  |  avg time  |  max time  |%varavg| %total
---------------------------------------------------------------
Pair    | 1.8648     | 1.8648     | 1.8648     |   0.0 | 35.76
Neigh   | 0.0079613  | 0.0079613  | 0.0079613  |   0.0 |  0.15
Comm    | 0.12817    | 0.12817    | 0.12817    |   0.0 |  2.46
Output  | 0.069052   | 0.069052   | 0.069052   |   0.0 |  1.32
Modify  | 3.1391     | 3.1391     | 3.1391     |   0.0 | 60.19
Other   |            | 0.005966   |            |       |  0.11

Nlocal:        125.000 ave         125 max         125 min
Histogram: 1 0 0 0 0 0 0 0 0 0
Nghost:        1900.00 ave        1900 max        1900 min
Histogram: 1 0 0 0 0 0 0 0 0 0
Neighs:        14723.0 ave       14723 max       14723 min
Histogram: 1 0 0 0 0 0 0 0 0 0

Total # of neighbors = 14723
Ave neighs/atom = 117.78400
Neighbor list builds = 133
Dangerous builds = 0

variable avedens equal f_aves[1]
variable avetemp equal f_aves[2]
variable avepress equal f_aves[3]
variable errdens equal sqrt(f_aves[4]-f_aves[1]*f_aves[1])
variable errtemp equal sqrt(f_aves[5]-f_aves[2]*f_aves[2])
variable errpress equal sqrt(f_aves[6]-f_aves[3]*f_aves[3])

print "Averages"
Averages
print "--------"
--------
print "Density: ${avedens}"
Density: 0.634284059698216
print "Stderr: ${errdens}"
Stderr: 0.0210177897125971
print "Temperature: ${avetemp}"
Temperature: 2.23885850879407
print "Stderr: ${errtemp}"
Stderr: 0.16733895177376
print "Pressure: ${avepress}"
Pressure: 3.00312359880076
print "Stderr: ${errpress}"
Stderr: 0.619260194939348
clear # Clear any previous runs
  using 8 OpenMP thread(s) per MPI task

package omp 8 # For parallelisation.
using multi-threaded neighbor list subroutines


### DEFINE SIMULATION BOX GEOMETRY ###
lattice sc 0.8
Lattice spacing in x,y,z = 1.0772173 1.0772173 1.0772173
region box block 0 5 0 5 0 5
create_box 1 box
Created orthogonal box = (0.0000000 0.0000000 0.0000000) to (5.3860867 5.3860867 5.3860867)
  1 by 1 by 1 MPI processor grid
create_atoms 1 box
Created 125 atoms
  create_atoms CPU = 0.000 seconds

### DEFINE PHYSICAL PROPERTIES OF ATOMS ###
mass 1 1.0
pair_style lj/cut/omp 2.5
pair_coeff 1 1 1.0 1.0
neighbor 2.0 bin

### SPECIFY THE REQUIRED THERMODYNAMIC STATE ###
variable T equal 2.5
variable p equal 2
variable timestep equal 0.001

log ${T}_${p}_NpT.log # specify the log file name. Can overwrite if desired
log 2.5_${p}_NpT.log 
log 2.5_2_NpT.log 
