
### SPECIFY THE NUMBER OF PRODUCTION STEPS ###
variable Nprod equal 30000

### ASSIGN ATOMIC VELOCITIES ###
velocity all create ${T} 12345 dist gaussian rot yes mom yes
velocity all create 2.5 12345 dist gaussian rot yes mom yes

### SPECIFY ENSEMBLE ###
timestep ${timestep}
timestep 0.001
fix nve all nve

### THERMODYNAMIC OUTPUT CONTROL ###
thermo_style custom time etotal temp press
thermo 10

### RECORD TRAJECTORY ###
dump traj all custom 1000 traj.dump id x y z

### SPECIFY TIMESTEP ###

### RUN SIMULATION TO MELT CRYSTAL ###
run 10000
Last active /omp style is pair_style lj/cut/omp
Neighbor list info ...
  update every 1 steps, delay 10 steps, check yes
  max neighbors/atom: 2000, page size: 100000
  master list distance cutoff = 4.5
  ghost atom cutoff = 4.5
  binsize = 2.25, bins = 3 3 3
  1 neighbor lists, perpetual/occasional/extra = 1 0 0
  (1) pair lj/cut/omp, perpetual
      attributes: half, newton on, omp
      pair build: half/bin/atomonly/newton/omp
      stencil: half/bin/3d/newton
      bin: standard
Per MPI rank memory allocation (min/avg/max) = 10.63 | 10.63 | 10.63 Mbytes
Time TotEng Temp Press 
           0   -1.5447711          2.5    1.6887632 
        0.01   -1.5447903    2.4412114    2.0151848 
        0.02   -1.5409015     2.255177     3.031597 
        0.03    -1.528985    1.9388678    4.7164208 
        0.04    -1.522145    1.5689045    6.6397518 
        0.05   -1.5219219    1.3307084    7.9105159 
        0.06   -1.5200744    1.3137688    8.1085657 
        0.07   -1.5197848    1.4184415    7.6742142 
        0.08   -1.5190286    1.5308711    7.1514104 
        0.09    -1.517437    1.6124811    6.7485995 
         0.1    -1.516378    1.6767616    6.4251348 
        0.11   -1.5157236    1.7374638    6.1256937 
        0.12   -1.5153276    1.8016262     5.817051 
        0.13   -1.5149455    1.8697442    5.4931898 
        0.14    -1.511686    1.9349772    5.1847546 
        0.15   -1.5099769    1.9937609    4.8963062 
        0.16    -1.509581    2.0558756    4.5838635 
        0.17   -1.5096122    2.1227912    4.2468141 
        0.18   -1.5106802    2.1666981    4.0149016 
        0.19   -1.5104054    2.1683128    3.9844295 
         0.2   -1.5109088     2.143079    4.0871364 
        0.21   -1.5105204    2.1099952    4.2409404 
        0.22   -1.5118293    2.0723371    4.4251038 
        0.23   -1.5113229    2.0294598    4.6476776 
        0.24   -1.5119475    1.9803696    4.9041556 
        0.25   -1.5109215    1.9462247    5.0982649 
        0.26   -1.5106343     1.922189    5.2332208 
        0.27   -1.5104682    1.9314522     5.200617 
        0.28   -1.5106683     1.991841      4.92883 
        0.29   -1.5110966     2.040083    4.7115829 
         0.3   -1.5144784    2.0333389    4.7479147 
        0.31   -1.5150763    1.9863378    4.9840422 
        0.32   -1.5131017    1.9570505    5.1603799 
        0.33   -1.5130599    1.9592956    5.2087987 
        0.34    -1.511607    1.9287124    5.4125196 
        0.35   -1.5092899    1.8853549    5.6674689 
        0.36   -1.5094387    1.9148134     5.575151 
        0.37   -1.5088827    1.9990577    5.2202056 
        0.38   -1.5094067    2.0468558    5.0211375 
        0.39   -1.5100124     2.040892    5.0751845 
         0.4   -1.5089763    2.0144816    5.2417996 
        0.41   -1.5101722     1.967085    5.5070907 
        0.42   -1.5093266    1.8969388    5.8689672 
        0.43     -1.51034    1.8654546    6.0373771 
        0.44   -1.5132886    1.8986038    5.8947735 
        0.45   -1.5132956    1.9321892    5.7370756 
        0.46    -1.513916     1.948429    5.6468818 
        0.47   -1.5134154    1.9685896    5.5377747 
        0.48   -1.5146112    1.9755479    5.4800303 
        0.49   -1.5153557    1.9538884    5.5452291 
         0.5   -1.5144178    1.9408643    5.5729846 
        0.51   -1.5145806    1.9612944    5.4510652 
        0.52   -1.5139625    1.9895464    5.2989045 
        0.53   -1.5155205    1.9934161    5.2603363 
        0.54   -1.5154994    1.9755639    5.3361412 
        0.55    -1.514479     1.949894    5.4666049 
        0.56   -1.5155075    1.9007547    5.7095532 
        0.57   -1.5164972    1.8453413    5.9807786 
        0.58   -1.5170184    1.8319067    6.0571302 
        0.59   -1.5163901    1.8637261    5.9188253 
         0.6   -1.5149655    1.9180206    5.6692633 
        0.61   -1.5155269    1.9726441    5.4117189 
        0.62   -1.5148584    1.9913473    5.3169834 
        0.63   -1.5158814    1.9827925    5.3440343 
        0.64   -1.5147089    1.9700699    5.3950489 
        0.65   -1.5134218    1.9582153    5.4451331 
        0.66   -1.5129055    1.9350519    5.5486841 
        0.67   -1.5127364    1.8984303    5.7134698 
        0.68   -1.5113004    1.8778894    5.8067845 
        0.69   -1.5092302    1.8767066    5.8093514 
         0.7   -1.5080705    1.8724306    5.8213008 
        0.71   -1.5080667    1.8509133    5.9104254 
        0.72   -1.5079112    1.8213262    6.0371682 
        0.73    -1.510792    1.8102535    6.0719747 
        0.74   -1.5091067    1.8183139     6.017648 
        0.75   -1.5092358    1.8353518    5.9105891 
        0.76   -1.5096245    1.8628416    5.7569864 
        0.77   -1.5102866    1.8941155    5.5943249 
        0.78   -1.5107833    1.9174007    5.4756842 
        0.79   -1.5121009    1.9424091    5.3563983 
         0.8   -1.5126284      1.95747    5.2876788 
        0.81   -1.5113233    1.9529129    5.3119381 
        0.82   -1.5113012    1.9264395    5.4297298 
        0.83   -1.5107429    1.9029249    5.5285428 
        0.84   -1.5110389    1.9166468    5.4555493 
        0.85    -1.512141    1.9405904    5.3353604 
        0.86   -1.5114829    1.9252754    5.3953928 
        0.87    -1.512195    1.8800663    5.5874104 
        0.88   -1.5125869    1.8664323    5.6380929 
        0.89   -1.5116972    1.8913968    5.5136591 
         0.9   -1.5106522    1.9284811    5.3325382 
        0.91   -1.5108077    1.9701253    5.1362952 
        0.92   -1.5109698    1.9926391    5.0377286 
        0.93    -1.510917    1.9768996    5.1168296 
        0.94   -1.5107458    1.9774443    5.1248028 
        0.95    -1.513026    2.0266907    4.9118536 
        0.96   -1.5146006    2.0713833    4.7212091 
        0.97   -1.5140935     2.084845    4.6816392 
        0.98   -1.5117329    2.0499408    4.8688767 
        0.99   -1.5099768    1.9826751    5.2011992 
           1   -1.5110006    1.9420038     5.407981 
        1.01   -1.5107815    1.9487969    5.3996297 
        1.02   -1.5117065      1.96391    5.3437191 
        1.03   -1.5111578    1.9684832    5.3317784 
        1.04   -1.5111677     1.978652    5.2970054 
        1.05   -1.5106689    1.9849966    5.2873829 
        1.06   -1.5112906    1.9692457    5.3798513 
        1.07   -1.5094453    1.9541017    5.4752044 
        1.08   -1.5086965    1.9554307    5.4914732 
        1.09   -1.5076543    1.9533374    5.5135961 
         1.1    -1.507371     1.951183    5.5248103 
        1.11   -1.5077798    1.9670709    5.4496449 
        1.12   -1.5079205    1.9879527    5.3523449 
        1.13   -1.5093504    2.0019841    5.2859952 
        1.14    -1.509622    2.0092988    5.2530685 
        1.15   -1.5092319    2.0014609    5.2855267 
        1.16   -1.5084245    1.9799411    5.3716469 
        1.17    -1.508533    1.9690111    5.3995628 
        1.18   -1.5085454    1.9893311    5.2843214 
        1.19   -1.5089822    2.0252187    5.1077906 
         1.2    -1.509516    2.0336153    5.0749895 
        1.21   -1.5090922    1.9995597    5.2575175 
        1.22   -1.5090632    1.9533893    5.5076207 
        1.23   -1.5094459    1.9296362    5.6522518 
        1.24   -1.5094554    1.9402975    5.6248031 
        1.25   -1.5094766    1.9737256    5.4757189 
        1.26   -1.5076646    2.0054908    5.3280778 
        1.27   -1.5085812    2.0191721    5.2632734 
        1.28   -1.5096258    2.0071479    5.3293867 
        1.29   -1.5113135    1.9698658    5.5225922 
         1.3   -1.5126151    1.9193175    5.7807411 
        1.31   -1.5140411    1.8689872    6.0278545 
        1.32   -1.5127256    1.8396554    6.1656611 
        1.33    -1.511571    1.8451723    6.1288866 
        1.34   -1.5096322    1.8725777    5.9855401 
        1.35   -1.5096372     1.905092    5.8155381 
        1.36   -1.5088454    1.9373334    5.6532191 
        1.37   -1.5080779    1.9719878    5.4926113 
        1.38   -1.5074643    1.9865714    5.4411869 
        1.39   -1.5076867    1.9493094     5.638171 
         1.4   -1.5089783    1.8883421    5.9504405 
        1.41   -1.5080535    1.8265279    6.2673489 
        1.42   -1.5079023    1.7803735    6.5006204 
        1.43   -1.5070054    1.7686431    6.5659152 
        1.44   -1.5071453    1.7800576    6.5094436 
        1.45   -1.5076847    1.8012783    6.3963247 
        1.46   -1.5079513    1.8133691    6.3167597 
        1.47   -1.5093583     1.815241    6.2756373 
        1.48   -1.5097603    1.8291158    6.1800393 
        1.49   -1.5100191    1.8479512    6.0597942 
         1.5   -1.5101168    1.8731182    5.9105568 
        1.51   -1.5096048    1.9268892    5.6394313 
        1.52   -1.5095102    1.9928439    5.3246687 
        1.53   -1.5113433    2.0335651     5.137541 
        1.54   -1.5101658    2.0375369     5.140772 
        1.55   -1.5092574    2.0069267     5.314759 
        1.56   -1.5092545    1.9458762    5.6272272 
        1.57   -1.5098764    1.8745543    5.9728667 
        1.58   -1.5104965    1.8366355    6.1471383 
        1.59   -1.5109326    1.8640843    6.0095256 
         1.6    -1.511529    1.9125401     5.767113 
        1.61   -1.5105776    1.9169921     5.721244 
        1.62   -1.5107754    1.9118667    5.7226687 
        1.63   -1.5092475    1.9492034    5.5484633 
        1.64   -1.5088962    1.9949283    5.3470463 
        1.65   -1.5078573    2.0037573    5.3289211 
        1.66   -1.5060296      1.96393    5.5506446 
        1.67   -1.5061351    1.8792787     5.982674 
        1.68   -1.5060704    1.7851504    6.4524799 
        1.69   -1.5051418    1.7494463    6.6431333 
         1.7   -1.5037709    1.7927577    6.4613033 
        1.71   -1.5034646    1.8495125    6.2109916 
        1.72   -1.5051454    1.8372502    6.2702638 
        1.73   -1.5052805    1.7777931     6.545713 
        1.74   -1.5063443    1.7786816    6.5480801 
        1.75   -1.5073179    1.8325817    6.3009901 
        1.76   -1.5079562    1.8819022    6.0612109 
        1.77   -1.5088771    1.9229979    5.8569859 
        1.78   -1.5095297    1.9459059    5.7429781 
        1.79   -1.5095239    1.9444612    5.7518277 
         1.8   -1.5118639    1.9232164    5.8563918 
        1.81   -1.5096459    1.8914126    6.0198068 
        1.82   -1.5104026    1.8557746    6.1877546 
        1.83   -1.5098485    1.8446342    6.2294036 
        1.84   -1.5084315    1.8860418    6.0157668 
        1.85   -1.5093748    1.9576231    5.6468212 
        1.86   -1.5089784    2.0215238    5.3089772 
        1.87   -1.5093671    2.0710034    5.0430101 
        1.88   -1.5104313    2.1018559     4.876814 
        1.89   -1.5105605    2.0988386    4.8839111 
         1.9   -1.5092352    2.0661702    5.0445019 
        1.91   -1.5080619     2.025187    5.2565371 
        1.92   -1.5075431    1.9790647    5.4974808 
        1.93   -1.5080299    1.9319538    5.7387716 
        1.94   -1.5097193    1.9136523    5.8405211 
        1.95   -1.5097713    1.9300292    5.7818233 
        1.96   -1.5096677    1.9389971    5.7546769 
        1.97   -1.5088577    1.9200604     5.859095 
        1.98   -1.5091049    1.8972288    5.9870156 
        1.99   -1.5096424    1.8889286    6.0539476 
           2   -1.5109867    1.8786131    6.1305362 
        2.01   -1.5108452    1.8334014    6.3633038 
        2.02   -1.5102541    1.7695683     6.667532 
        2.03   -1.5111171     1.759275    6.7061796 
        2.04   -1.5098904    1.8447382    6.2962071 
        2.05   -1.5090408    1.9552134    5.7601852 
        2.06   -1.5095569    2.0170462    5.4441179 
        2.07    -1.508873    2.0233114     5.396268 
        2.08    -1.508594    1.9964375    5.5139686 
        2.09   -1.5077979    1.9565924    5.7004629 
         2.1   -1.5077955    1.9192672    5.8734749 
        2.11   -1.5092172    1.8958714    5.9692879 
        2.12   -1.5106572    1.9014669    5.9180625 
        2.13   -1.5109589    1.9309475    5.7512533 
        2.14   -1.5108531    1.9497189    5.6343958 
        2.15   -1.5102122    1.9309941    5.6956738 
        2.16   -1.5123993    1.8730001     5.933996 
        2.17   -1.5116982    1.8135293    6.1793942 
        2.18    -1.509866    1.8056189    6.1857472 
        2.19   -1.5090251    1.8536626    5.9316761 
         2.2   -1.5081128    1.8957754    5.6972652 
        2.21   -1.5084501    1.9302354    5.4990415 
        2.22   -1.5106068     1.987556    5.2162916 
        2.23   -1.5107334    2.0119193     5.106795 
        2.24   -1.5092538    1.9945978    5.2081524 
        2.25    -1.509245    1.9715369    5.3485532 
        2.26    -1.509651    1.9549041    5.4673974 
        2.27   -1.5079505    1.9359888    5.6018801 
        2.28   -1.5088548    1.9182882    5.7242952 
        2.29   -1.5096512    1.9102911    5.7953507 
         2.3    -1.509909    1.9081763    5.8259883 
        2.31   -1.5095119    1.9202763    5.7779169 
        2.32    -1.510081    1.9465208    5.6551207 
        2.33    -1.510195    1.9497601    5.6281956 
        2.34    -1.512226    1.9440269    5.6299751 
        2.35   -1.5121177    1.9743504    5.4647434 
        2.36   -1.5115138    2.0211649    5.2197358 
        2.37   -1.5109977    2.0365653    5.1173089 
        2.38   -1.5102995    2.0141735    5.1922513 
        2.39   -1.5105398    1.9985761     5.242795 
         2.4   -1.5100648    2.0075779    5.1888276 
        2.41   -1.5116233    2.0065415    5.1787114 
        2.42   -1.5118775    1.9935905    5.2300135 
        2.43   -1.5109704    1.9736323    5.3204408 
        2.44   -1.5099232     1.940835    5.4694794 
        2.45   -1.5103911    1.9103467    5.6009276 
        2.46   -1.5107867    1.9338858    5.4891893 
        2.47   -1.5089144    2.0037686    5.1816975 
        2.48   -1.5099725    2.0417115    5.0277662 
        2.49   -1.5116241    2.0236526    5.1417927 
         2.5   -1.5118513    1.9887929    5.3447603 
        2.51   -1.5114826    1.9704412    5.4746456 
        2.52    -1.510452     1.955694     5.580216 
        2.53   -1.5114882     1.934845    5.7003989 
        2.54   -1.5109705    1.9174412    5.8029956 
        2.55   -1.5104661    1.9031523    5.8888473 
        2.56    -1.511241    1.8817619    5.9970088 
        2.57   -1.5115838    1.8686584    6.0542633 
        2.58   -1.5107966    1.9100509    5.8545418 
        2.59   -1.5125857    1.9994763    5.4290448 
         2.6   -1.5119489     2.050914    5.1788636 
        2.61   -1.5115045    2.0379663    5.2255987 
        2.62   -1.5121364    2.0038282    5.3735726 
        2.63   -1.5125616     1.972752    5.5088373 
        2.64   -1.5130818    1.9257998    5.7080324 
        2.65   -1.5125258    1.8685404    5.9441768 
        2.66   -1.5126266    1.8361636    6.0530937 
        2.67   -1.5139375     1.858085    5.9025361 
        2.68   -1.5133507    1.9181619    5.5798673 
        2.69   -1.5133609    1.9532532    5.3772367 
         2.7   -1.5137186    1.9443609    5.3906079 
        2.71   -1.5134225    1.9204309    5.4874167 
        2.72    -1.512619    1.9139834    5.5054251 
        2.73   -1.5131232    1.9487193    5.3210424 
        2.74   -1.5130226    2.0329505    4.9004586 
        2.75   -1.5108649    2.1339831     4.409643 
        2.76   -1.5098774    2.1875681    4.1557066 
        2.77   -1.5099854     2.145203    4.3687827 
        2.78   -1.5096641    2.0417164    4.8902935 
        2.79   -1.5110897    1.9394601    5.4137894 
         2.8   -1.5112667    1.8759584    5.7445767 
        2.81   -1.5100332    1.9128927    5.6005941 
        2.82   -1.5101157    1.9877267    5.2629757 
        2.83   -1.5095983    2.0111215    5.1515458 
        2.84   -1.5103392     1.970399    5.3317273 
        2.85   -1.5091227     1.907507    5.6147522 
        2.86   -1.5083391    1.8671846    5.7837401 
        2.87   -1.5086035    1.8585351    5.7897986 
        2.88   -1.5074522    1.8744081    5.6721497 
        2.89   -1.5076872    1.8992434    5.5012162 
         2.9   -1.5082175    1.9476824     5.224821 
        2.91   -1.5075951    2.0087385    4.9063469 
        2.92   -1.5083973    2.0448872    4.7219988 
        2.93   -1.5069618    2.0332527    4.7880749 
        2.94   -1.5069382    1.9752912    5.0870411 
        2.95   -1.5089708    1.9019078    5.4623941 
        2.96   -1.5097151    1.8743063    5.6280889 
        2.97   -1.5074112     1.931096    5.4075723 
        2.98   -1.5088175    2.0250492    5.0081964 
        2.99    -1.508552    2.0652728    4.8542353 
           3   -1.5071764    2.0567928    4.9289795 
        3.01   -1.5063131    2.0531672    4.9923336 
        3.02   -1.5062781    2.0237025    5.1723506 
        3.03   -1.5054611    1.9906828    5.3721946 
        3.04    -1.504311    1.9827121    5.4599974 
        3.05   -1.5052358    1.9804113    5.5114845 
        3.06   -1.5066794    1.9665537    5.6048296 
        3.07   -1.5070592    1.9323319    5.7801005 
        3.08   -1.5079363    1.8920159    5.9657336 
        3.09   -1.5072574    1.8849429     5.983549 
         3.1   -1.5063904     1.932172    5.7410863 
        3.11   -1.5063155    1.9875167    5.4571448 
        3.12   -1.5064395    1.9929595    5.4085852 
        3.13   -1.5059865    1.9514643    5.5917615 
        3.14   -1.5059513    1.9165172    5.7634795 
        3.15   -1.5057229    1.9201473    5.7740357 
        3.16    -1.507328    1.9344983    5.7384368 
        3.17   -1.5071995    1.9217389    5.8279516 
        3.18   -1.5088541     1.882594     6.025769 
        3.19   -1.5088261    1.8671698    6.1028838 
         3.2   -1.5068106    1.9018143    5.9365187 
        3.21   -1.5073045      1.93606    5.7430939 
        3.22   -1.5070214    1.9872418    5.4662463 
        3.23   -1.5072288    2.0586861    5.1073961 
        3.24   -1.5056526    2.0796334    4.9933768 
        3.25    -1.505325    2.0490737    5.1251418 
        3.26   -1.5060747    2.0247081    5.2380599 
        3.27   -1.5061199    2.0372765    5.1913233 
        3.28   -1.5068033    2.0496339    5.1464111 
        3.29   -1.5079515    2.0316179    5.2388982 
         3.3   -1.5075239    2.0073463    5.3636095 
        3.31   -1.5079385    2.0019875    5.4024264 
        3.32   -1.5074439     1.997219    5.4395539 
        3.33   -1.5076948     1.972663    5.5661629 
        3.34   -1.5101584    1.9422557    5.7208953 
        3.35   -1.5112218    1.9188418    5.8497184 
        3.36    -1.510825    1.8900722    5.9983126 
        3.37   -1.5097612    1.8618603    6.1313461 
        3.38   -1.5088337    1.8540719    6.1554332 
        3.39   -1.5091094     1.880231    6.0116031 
         3.4    -1.508502    1.9261664    5.7761474 
        3.41   -1.5100795    1.9528442    5.6278781 
        3.42   -1.5109687     1.950105    5.6219034 
        3.43   -1.5114787    1.9421375    5.6472968 
        3.44    -1.511083    1.9457926    5.6214699 
        3.45   -1.5102139    1.9595965       5.5474 
        3.46   -1.5084085    1.9484145    5.5814785 
        3.47   -1.5080486    1.9068697    5.7389513 
        3.48   -1.5066172     1.921665    5.6408231 
        3.49   -1.5058147    1.9858855    5.3218453 
         3.5   -1.5068495    1.9999492    5.2331654 
        3.51   -1.5069116    1.9676027    5.3774433 
        3.52   -1.5061597    1.9460948    5.5042287 
        3.53   -1.5057629    1.9241296    5.6470523 
        3.54   -1.5048123    1.9047044    5.7786789 
        3.55   -1.5052241    1.9161782    5.7616236 
        3.56   -1.5073349    1.9420837    5.6662004 
        3.57   -1.5065525    1.9569291    5.6189573 
        3.58    -1.505653    1.9527452    5.6581547 
        3.59   -1.5068139    1.9224408    5.8102922 
         3.6   -1.5063761    1.8867102    5.9812688 
        3.61   -1.5054668    1.8921858    5.9590137 
        3.62   -1.5057907    1.9337376    5.7713726 
        3.63   -1.5064338    1.9576292    5.6709932 
        3.64   -1.5066764    1.9604067     5.686329 
        3.65   -1.5064328    1.9554729    5.7598673 
        3.66   -1.5074905    1.9302334    5.9357252 
        3.67   -1.5071978    1.8797976    6.2210713 
        3.68   -1.5069044    1.8348155     6.455575 
        3.69   -1.5082028    1.8288333    6.4751901 
         3.7   -1.5081655    1.8535465    6.3262996 
        3.71   -1.5093041     1.837228    6.3293206 
        3.72    -1.510376    1.8084376    6.3652912 
        3.73   -1.5111595    1.8555417    6.0465674 
        3.74    -1.510595    1.9702911     5.421471 
        3.75    -1.509063    2.0622995    4.9107051 
        3.76   -1.5083841     2.082856    4.7483751 
        3.77   -1.5086078    2.0499384     4.860623 
        3.78   -1.5104095     2.000824    5.0700886 
        3.79   -1.5102729    1.9651498    5.2338506 
         3.8   -1.5119756    1.9580887    5.2657332 
        3.81   -1.5120121    1.9776615    5.1773762 
        3.82    -1.512424    1.9940599    5.1009174 
        3.83   -1.5121323    1.9912572    5.1151155 
        3.84   -1.5118656    1.9934211     5.119662 
        3.85   -1.5115116    2.0035516    5.1063764 
        3.86   -1.5100585     1.991773    5.2066745 
        3.87   -1.5099074    1.9650703    5.3788921 
        3.88   -1.5078343    1.9425486    5.5323461 
        3.89   -1.5079541    1.9228158    5.6552967 
         3.9   -1.5075359    1.9244161    5.6661933 
        3.91   -1.5070794    1.9661865    5.4905849 
        3.92   -1.5081419     1.991889    5.3876015 
        3.93   -1.5081078    1.9738892    5.4954595 
        3.94   -1.5074212    1.9381186    5.6987674 
        3.95   -1.5070391    1.9142878    5.8561276 
        3.96    -1.506804    1.8953373    5.9891015 
        3.97   -1.5069146    1.8616443    6.1746284 
        3.98   -1.5074175    1.8307027    6.3292978 
        3.99   -1.5066491    1.8172568    6.3882855 
           4   -1.5075427    1.8160416    6.3710521 
        4.01   -1.5100359    1.8393478    6.2295843 
        4.02   -1.5115079    1.8715711    6.0440393 
        4.03   -1.5116373    1.8799209    5.9657656 
        4.04    -1.511463    1.8692163    5.9738558 
        4.05   -1.5106768    1.8787571    5.8954735 
        4.06   -1.5112558     1.907425     5.734337 
        4.07   -1.5103242    1.9121992    5.6855395 
        4.08   -1.5102988    1.9041147    5.6972627 
        4.09   -1.5086212    1.9072669    5.6674748 
         4.1    -1.509162    1.9086084    5.6486053 
        4.11   -1.5099146    1.8949017    5.7017946 
        4.12   -1.5096391    1.8888489     5.727128 
        4.13   -1.5094072    1.8994946    5.6822766 
        4.14   -1.5090158    1.9041598    5.6688608 
        4.15   -1.5100468    1.9011854    5.6940628 
        4.16   -1.5094064    1.8987428    5.7270677 
        4.17   -1.5082202    1.8899388    5.7937274 
        4.18   -1.5099132      1.88439    5.8438149 
        4.19   -1.5088855    1.8855463    5.8671587 
         4.2   -1.5091245    1.8887606    5.8714114 
        4.21   -1.5083407    1.9132691    5.7715615 
        4.22   -1.5083548    1.9602342     5.559334 
        4.23   -1.5085126     2.006652    5.3440277 
        4.24    -1.507718    2.0223057    5.2690913 
        4.25   -1.5084852    2.0113425     5.319999 
        4.26   -1.5087541    1.9859172    5.4503808 
        4.27   -1.5098049    1.9386143    5.6859386 
        4.28   -1.5100084    1.8722015     6.000807 
        4.29   -1.5093144    1.8421416    6.1320317 
         4.3     -1.50923     1.885846    5.9047949 
        4.31   -1.5086133     1.958324    5.5280868 
        4.32   -1.5095349     2.011221     5.232624 
        4.33   -1.5096565    2.0294441     5.106313 
        4.34   -1.5096351    2.0209386    5.1185998 
        4.35   -1.5081903    2.0070156    5.1735512 
        4.36   -1.5083285    1.9979229    5.2136875 
        4.37   -1.5079483    1.9873704    5.2648917 
        4.38   -1.5082226    1.9667509    5.3629595 
        4.39   -1.5084735    1.9304189    5.5349353 
         4.4   -1.5083095    1.8983295    5.6930119 
        4.41   -1.5078223    1.9016785    5.6979976 
        4.42   -1.5086344     1.916833    5.6449787 
        4.43   -1.5078411    1.9140452    5.6612908 
        4.44   -1.5060831    1.9049884    5.6867815 
        4.45   -1.5067388    1.9378651    5.5064912 
        4.46   -1.5067928    2.0040829    5.1770206 
        4.47    -1.506801    2.0452505    4.9733581 
        4.48   -1.5055982    2.0420272    4.9955089 
        4.49   -1.5071518    2.0166229    5.1379044 
         4.5   -1.5071597    1.9847852    5.3263246 
        4.51   -1.5068902    1.9454773    5.5501056 
        4.52   -1.5071459    1.9065936    5.7636704 
        4.53   -1.5064921    1.8740669    5.9343554 
        4.54   -1.5085762    1.8541504    6.0208901 
        4.55    -1.510803    1.8527727     5.996852 
        4.56   -1.5093663     1.867371    5.8804194 
        4.57   -1.5100058     1.904175      5.64271 
        4.58   -1.5124997    1.9761806    5.2413725 
        4.59   -1.5100743    2.0659616    4.7845827 
         4.6   -1.5120608    2.1192012    4.5161632 
        4.61   -1.5133559    2.1017536    4.6029412 
        4.62   -1.5115988    2.0285717    4.9732552 
        4.63   -1.5115655    1.9586645    5.3391202 
        4.64   -1.5111861    1.9267975    5.5304864 
        4.65   -1.5096488    1.9239765    5.5794705 
        4.66   -1.5088877     1.923197    5.6038248 
        4.67   -1.5096364    1.9111252    5.6628832 
        4.68   -1.5100114    1.9192967    5.6198827 
        4.69   -1.5092536    1.9610232    5.4181944 
         4.7    -1.507705    2.0075849    5.1932294 
        4.71   -1.5094182    2.0349938    5.0598873 
        4.72   -1.5082632    2.0227999    5.1280463 
        4.73    -1.508885    1.9580294    5.4434151 
        4.74   -1.5080463    1.8807877    5.8201721 
        4.75   -1.5101488     1.849552    5.9791677 
        4.76    -1.510314    1.8632599    5.9280965 
        4.77    -1.512183    1.8866372    5.8270814 
        4.78   -1.5128323    1.8820319    5.8560697 
        4.79   -1.5121361     1.852577     5.998675 
         4.8   -1.5126496     1.837765    6.0680512 
        4.81   -1.5124057    1.8493207    6.0101717 
        4.82   -1.5116289      1.87405    5.8874184 
        4.83    -1.510629    1.8989401     5.768319 
        4.84   -1.5104786    1.8887752    5.8101372 
        4.85   -1.5088518    1.8677484    5.9068185 
        4.86    -1.508912     1.879919    5.8574578 
        4.87   -1.5085412    1.8811109    5.8585967 
        4.88   -1.5088814    1.8513293    5.9942165 
        4.89    -1.508605    1.8320588    6.0776858 
         4.9   -1.5092638    1.8390882    6.0299493 
        4.91   -1.5088732    1.8628123    5.8951749 
        4.92   -1.5079709    1.8969468    5.7061101 
        4.93   -1.5077082    1.9300269    5.5197275 
        4.94   -1.5074534    1.9614368    5.3493361 
        4.95   -1.5060396    1.9839765    5.2387074 
        4.96   -1.5055338    1.9759738    5.2889726 
        4.97   -1.5047233    1.9253618     5.555973 
        4.98   -1.5049371    1.8596524    5.9069802 
        4.99   -1.5041717    1.8234178    6.1348883 
           5   -1.5042038    1.8073083    6.2633641 
        5.01   -1.5049573     1.790016     6.375914 
        5.02   -1.5061122    1.7934658    6.3733036 
        5.03   -1.5050964    1.8334896     6.193982 
        5.04   -1.5044638    1.8846536    5.9559812 
        5.05   -1.5034256    1.9225055    5.7811825 
        5.06   -1.5032965     1.938037     5.717203 
        5.07    -1.503944    1.9278692    5.7852274 
        5.08   -1.5051256    1.8923685    5.9857036 
        5.09   -1.5056428    1.8292871    6.3242963 
         5.1   -1.5044185    1.7512683    6.7311162 
        5.11   -1.5055581    1.7125913     6.942771 
        5.12   -1.5056265    1.7428156    6.8252279 
        5.13    -1.506151    1.7881328    6.6105138 
        5.14   -1.5072989    1.8350836    6.3637604 
        5.15   -1.5062841     1.898744    6.0335804 
        5.16   -1.5067094     1.946055    5.7715924 
        5.17   -1.5073379    1.9413351    5.7455194 
        5.18   -1.5071447    1.9053604    5.8650238 
        5.19   -1.5084546    1.8954524    5.8707087 
         5.2   -1.5094306    1.9091514    5.7762632 
        5.21   -1.5110016     1.895046    5.8086657 
        5.22   -1.5109637    1.8467713    5.9979349 
        5.23   -1.5112031    1.8081762    6.1418612 
        5.24   -1.5108471    1.8055913    6.1225935 
        5.25   -1.5113569    1.8184711      6.02875 
        5.26   -1.5104668    1.8477241    5.8662235 
        5.27   -1.5106237    1.8689605    5.7429271 
        5.28   -1.5107125    1.8569501    5.7738319 
        5.29   -1.5088385     1.843929    5.8204479 
         5.3   -1.5099023    1.8719563    5.6920808 
        5.31    -1.509717    1.9198621    5.4965392 
        5.32   -1.5119509    1.9230916    5.5185124 
        5.33   -1.5125347    1.8754007    5.7851852 
        5.34   -1.5108224    1.8368747    6.0125127 
        5.35   -1.5084963    1.8294026    6.0800432 
        5.36    -1.509008    1.8347979    6.0556422 
        5.37   -1.5091283    1.8554834    5.9409915 
        5.38    -1.511245    1.8943845    5.7323421 
        5.39   -1.5108333    1.9311774    5.5374074 
         5.4   -1.5099219    1.9745933     5.325825 
        5.41   -1.5078587    2.0186759    5.1341646 
        5.42    -1.509046    2.0358248    5.0845093 
        5.43   -1.5093059    2.0109816    5.2522997 
        5.44   -1.5087616    1.9468189    5.6160288 
        5.45    -1.510677    1.8729368     6.018227 
        5.46   -1.5096099    1.8364422    6.2354297 
        5.47   -1.5095156    1.8579157    6.1581701 
        5.48   -1.5088925    1.9055964    5.9343091 
        5.49   -1.5101963     1.948263    5.7149428 
         5.5    -1.509169     1.978748    5.5560138 
        5.51   -1.5099481     1.983976     5.516208 
        5.52   -1.5078193    1.9732882    5.5599026 
        5.53   -1.5070426    1.9824027    5.5188004 
        5.54   -1.5070839    2.0077417    5.4090452 
        5.55   -1.5081356    2.0105673    5.4048369 
        5.56   -1.5099261    1.9792557    5.5593067 
        5.57   -1.5117144    1.9457466    5.7274756 
        5.58   -1.5112067    1.9437381    5.7576217 
        5.59   -1.5101871     1.963082    5.6880181 
         5.6   -1.5097955    1.9798643    5.6222651 
        5.61   -1.5091352    1.9919901    5.5737465 
        5.62   -1.5077079    2.0016922    5.5374364 
        5.63   -1.5082511    1.9986954    5.5565807 
        5.64   -1.5077334    1.9669307    5.7035727 
        5.65   -1.5069175    1.9096476    5.9533084 
        5.66   -1.5063436    1.8669318     6.117376 
        5.67   -1.5059557    1.8893763    5.9709409 
        5.68   -1.5051176    1.9688097    5.5651873 
        5.69   -1.5047656     2.032552     5.243347 
         5.7   -1.5059361    2.0331531    5.2335777 
        5.71   -1.5062992    1.9748935     5.521972 
        5.72    -1.507028    1.8961419    5.9197747 
        5.73    -1.507566    1.8493177     6.176633 
        5.74   -1.5062947    1.8296268    6.3022379 
        5.75   -1.5047016    1.8125731    6.3973732 
        5.76   -1.5052317    1.8169164    6.3774891 
        5.77    -1.506299    1.8356704    6.2762583 
        5.78   -1.5066504    1.8521297    6.1665908 
        5.79   -1.5064016    1.8914373    5.9384478 
         5.8   -1.5076013    1.9424254    5.6458552 
        5.81   -1.5053871    1.9803297     5.424966 
        5.82   -1.5052871    1.9906035    5.3526187 
        5.83    -1.504221    1.9482173    5.5516839 
        5.84   -1.5056087    1.8725014    5.9233447 
        5.85     -1.50663    1.8139898    6.2294406 
        5.86   -1.5052071    1.8029905    6.3199995 
        5.87   -1.5047048    1.8347067    6.2010114 
        5.88   -1.5060468    1.8869796    5.9735699 
        5.89   -1.5064442    1.9224971    5.8189687 
         5.9   -1.5056303     1.932377    5.7868143 
        5.91   -1.5065428    1.9371375    5.7831974 
        5.92   -1.5065446      1.93908    5.7972407 
        5.93   -1.5051059    1.9345785    5.8423307 
        5.94   -1.5039319    1.9256825    5.9048379 
        5.95   -1.5032846    1.9115068    5.9855213 
        5.96   -1.5035376    1.8897348    6.0886772 
        5.97   -1.5058587    1.8739769    6.1464027 
        5.98   -1.5074394    1.8883844    6.0548305 
        5.99   -1.5091676    1.9211475    5.8693152 
           6   -1.5095575    1.9390383     5.747282 
        6.01   -1.5105732    1.9387884    5.7058471 
        6.02    -1.509263    1.9431328    5.6496538 
        6.03    -1.509391    1.9619684    5.5250892 
        6.04   -1.5087459    1.9985232    5.3198506 
        6.05   -1.5078495    2.0427671    5.0805566 
        6.06   -1.5093002    2.0728395    4.9074319 
        6.07   -1.5089036    2.0705432    4.8952393 
        6.08    -1.507983    2.0353993    5.0466553 
        6.09   -1.5082297    1.9770925    5.3101879 
         6.1   -1.5076822    1.9137624    5.5953754 
        6.11   -1.5066055    1.8718173    5.7720221 
        6.12   -1.5068668    1.8815848    5.6982217 
        6.13   -1.5063771    1.9433253    5.3813888 
        6.14   -1.5074544    2.0222898    4.9870482 
        6.15    -1.507604    2.0747742    4.7330355 
        6.16   -1.5083841    2.0749093    4.7438879 
        6.17   -1.5091376     2.025603    5.0033033 
        6.18   -1.5071377    1.9579463    5.3567929 
        6.19   -1.5069891    1.9194745    5.5615932 
         6.2   -1.5070369    1.9290297    5.5241376 
        6.21   -1.5094143    1.9523945     5.395134 
        6.22   -1.5108145    1.9695186    5.2803539 
        6.23   -1.5096601    2.0055816     5.087777 
        6.24   -1.5085413    2.0384115    4.9272851 
        6.25   -1.5089187    2.0173378    5.0304908 
        6.26   -1.5075661    1.9574225    5.3334927 
        6.27   -1.5064903    1.9113529    5.5829071 
        6.28   -1.5074113    1.9141088    5.6062635 
        6.29   -1.5073532    1.9509098    5.4762248 
         6.3   -1.5092075    1.9556458    5.4882594 
        6.31   -1.5101839    1.9030642    5.7564426 
        6.32   -1.5104998    1.8615983    5.9674562 
        6.33   -1.5103317    1.8886955    5.8629006 
        6.34   -1.5108893    1.9117894    5.7639149 
        6.35   -1.5103097    1.8932444    5.8472412 
        6.36    -1.511082    1.8795604    5.9059716 
        6.37   -1.5093963    1.8907861    5.8522652 
        6.38   -1.5084839    1.9195014    5.7124786 
        6.39   -1.5073302    1.9531598    5.5507465 
         6.4   -1.5077241    1.9645921    5.4952028 
        6.41   -1.5067012    1.9406291    5.6201001 
        6.42    -1.508756     1.869652    5.9681115 
        6.43    -1.510011    1.7894341    6.3660106 
        6.44   -1.5096314    1.7511192    6.5722351 
        6.45   -1.5100307    1.7520888    6.5806897 
        6.46    -1.509506    1.7802348    6.4477745 
        6.47   -1.5080893     1.828962    6.2134937 
        6.48   -1.5082582    1.8736809    5.9962109 
        6.49    -1.507601    1.8788158    5.9642263 
         6.5   -1.5062355    1.8531075    6.0752046 
        6.51   -1.5053134    1.8465935    6.0962645 
        6.52   -1.5054722    1.8684531    5.9800811 
        6.53   -1.5049567    1.8910643    5.8573904 
        6.54   -1.5039214     1.897576    5.8136945 
        6.55   -1.5047198     1.873737    5.9136452 
        6.56   -1.5042958    1.8137567    6.1821807 
        6.57   -1.5035984    1.7579817    6.4282045 
        6.58   -1.5062415    1.7482937    6.4527874 
        6.59   -1.5071443    1.7649906    6.3492028 
         6.6   -1.5071572    1.8034246     6.147462 
        6.61   -1.5075671    1.8476372    5.9268127 
        6.62   -1.5078089    1.8792313    5.7738883 
        6.63   -1.5094971     1.912465    5.6241682 
        6.64   -1.5105833    1.9515248    5.4636506 
        6.65   -1.5110046    1.9572775    5.4678742 
        6.66   -1.5099211     1.904741    5.7458655 
        6.67   -1.5095981     1.834994    6.1001295 
        6.68   -1.5090624    1.8095685    6.2452288 
        6.69   -1.5102812    1.8407669    6.1183504 
         6.7   -1.5099281     1.886222    5.9194663 
        6.71   -1.5095277    1.9046457    5.8381729 
        6.72   -1.5087087    1.8999592    5.8586016 
        6.73    -1.509207    1.9068936    5.8193546 
        6.74   -1.5088624    1.9440976    5.6424149 
        6.75   -1.5090306    1.9708879    5.5121229 
        6.76   -1.5082202     1.957287    5.5692417 
        6.77   -1.5088623    1.9291099    5.6957022 
        6.78   -1.5094035    1.9067787    5.7997844 
        6.79   -1.5080383    1.8750943    5.9497885 
         6.8   -1.5083464    1.7982168    6.2870318 
        6.81   -1.5090517    1.7702549    6.3896215 
        6.82   -1.5090487    1.8464489    6.0184799 
        6.83   -1.5094349    1.9106051    5.6936191 
        6.84   -1.5103145    1.9363312    5.5490325 
        6.85   -1.5118661    1.9438225    5.4978097 
        6.86   -1.5114526     1.952227    5.4508121 
        6.87   -1.5113496    1.9771405    5.3291332 
        6.88   -1.5117379    1.9984353    5.2191717 
        6.89   -1.5115906    2.0161178    5.1270934 
         6.9   -1.5113989    2.0378886    5.0272706 
        6.91   -1.5114011    2.0143946    5.1407716 
        6.92   -1.5106724    1.9597001    5.4057545 
        6.93    -1.511099     1.934337    5.5454782 
        6.94    -1.510176    1.9139348    5.6590151 
        6.95   -1.5122365    1.8967991    5.7442886 
        6.96   -1.5132866    1.9014615    5.7312209 
        6.97   -1.5122748    1.9209641     5.663383 
        6.98   -1.5109758    1.9279791    5.6671976 
        6.99   -1.5116019    1.9230909     5.737305 
           7   -1.5095343    1.9283482    5.7820766 
        7.01   -1.5096842    1.9325846    5.8395304 
        7.02   -1.5103913    1.9103666     6.020776 
        7.03   -1.5106812    1.8331356    6.4364937 
        7.04   -1.5109058    1.7842608     6.700507 
        7.05   -1.5110563     1.802216    6.6266791 
        7.06   -1.5090859    1.8670486    6.3073349 
        7.07   -1.5087517      1.96562    5.8180199 
        7.08   -1.5082728    2.0396975    5.4467265 
        7.09   -1.5082714    2.0401431    5.4304933 
         7.1    -1.507692    1.9717519    5.7497476 
        7.11   -1.5073688    1.8987748    6.1013514 
        7.12   -1.5077908    1.8842986     6.184647 
        7.13   -1.5079801    1.9111436     6.064354 
        7.14   -1.5077106    1.9327541    5.9455097 
        7.15   -1.5079551    1.9478771     5.836761 
        7.16   -1.5086187    1.9649092    5.7063455 
        7.17   -1.5078454    1.9729852    5.6124429 
        7.18   -1.5092797    1.9632501    5.5951643 
        7.19   -1.5103004      1.94336    5.6258171 
         7.2   -1.5098351      1.93203    5.6239246 
        7.21   -1.5096677    1.8972408    5.7256906 
        7.22   -1.5110642    1.8722228     5.786777 
        7.23   -1.5111145    1.8890847    5.6772922 
        7.24   -1.5115216    1.8975938    5.6239616 
        7.25   -1.5091647    1.8703796    5.7591735 
        7.26   -1.5079436    1.8146868    6.0364743 
        7.27   -1.5095983    1.7781758     6.225647 
        7.28   -1.5117198    1.7989998    6.1505414 
        7.29   -1.5114933    1.8488563    5.9388099 
         7.3   -1.5126746     1.888116    5.7666076 
        7.31   -1.5134428    1.9027778     5.705349 
        7.32   -1.5132795    1.9050555    5.7019689 
        7.33   -1.5119752    1.9204156    5.6419259 
        7.34   -1.5116157    1.9460886    5.5336334 
        7.35   -1.5118902    1.9514676    5.5130871 
        7.36   -1.5115961    1.9248391    5.6308492 
        7.37   -1.5097483    1.8963071    5.7499905 
        7.38    -1.509912    1.8848052    5.7764551 
        7.39    -1.510248    1.8789036    5.7604457 
         7.4   -1.5100242    1.9179469    5.5392565 
        7.41   -1.5100979    1.9683161    5.2732246 
        7.42   -1.5113461    1.9628709    5.2663938 
        7.43   -1.5120883    1.9462595    5.3276508 
        7.44   -1.5127715    1.9559018    5.2835741 
        7.45   -1.5123573    1.9756651    5.1979675 
        7.46   -1.5121393    2.0133288    5.0372063 
        7.47   -1.5120222    2.0329754     4.965242 
        7.48   -1.5108193    2.0156007    5.0719941 
        7.49   -1.5114479    1.9855573    5.2407388 
         7.5   -1.5120877    1.9717067     5.335814 
        7.51   -1.5125163     1.986959      5.29556 
        7.52   -1.5121523    2.0020844    5.2526992 
        7.53   -1.5114625    1.9981802    5.2969766 
        7.54   -1.5116241    1.9993778    5.3286096 
        7.55   -1.5108741    1.9790284    5.4682302 
        7.56   -1.5101769    1.9090573     5.830719 
        7.57   -1.5096107    1.8297669    6.2247582 
        7.58   -1.5098535    1.7904547    6.4162528 
        7.59   -1.5114437    1.8100725    6.3145174 
         7.6   -1.5100585    1.8635382    6.0461558 
        7.61   -1.5104619    1.9032706    5.8328057 
        7.62   -1.5104409    1.9148579     5.760145 
        7.63   -1.5092729    1.9135127     5.770466 
        7.64   -1.5095341    1.8966735    5.8669159 
        7.65   -1.5096415    1.8670308    6.0290489 
        7.66   -1.5080725    1.8468842    6.1480089 
        7.67   -1.5066254    1.8479587     6.157419 
        7.68   -1.5059977    1.8785597     6.016715 
        7.69   -1.5043245    1.9173663    5.8279916 
         7.7   -1.5050929    1.9438552    5.6865455 
        7.71   -1.5056262    1.9620855    5.5882949 
        7.72   -1.5066585    1.9642745    5.5703909 
        7.73    -1.507184    1.9559051    5.6123312 
        7.74   -1.5066601    1.9377332     5.708973 
        7.75   -1.5078252    1.9154667    5.8253548 
        7.76   -1.5067884    1.9011789      5.90788 
        7.77   -1.5080864     1.899365    5.9220154 
        7.78   -1.5083319    1.9188301    5.8293711 
        7.79   -1.5075775    1.9654826    5.6084917 
         7.8    -1.508141    2.0077441    5.4088954 
        7.81   -1.5078522    2.0054365     5.424113 
        7.82   -1.5082208    1.9759087    5.5794643 
        7.83   -1.5062534    1.9411751    5.7732165 
        7.84   -1.5053179    1.9129468    5.9327638 
        7.85   -1.5045291    1.9098527    5.9645509 
        7.86   -1.5044215    1.9362216    5.8435682 
        7.87   -1.5040441    1.9741796    5.6533069 
        7.88   -1.5045636    2.0093915    5.4632952 
        7.89    -1.504451    2.0409565    5.2907297 
         7.9   -1.5060445    2.0532761     5.210859 
        7.91   -1.5055107    2.0277587    5.3154329 
        7.92   -1.5052042     1.982852    5.5114256 
        7.93   -1.5074249    1.9640524    5.5824128 
        7.94   -1.5105993    1.9727548    5.5186402 
        7.95   -1.5114903    1.9744889    5.4789691 
        7.96   -1.5109529    1.9787752    5.4278593 
        7.97   -1.5105835    1.9942523    5.3337705 
        7.98    -1.511903    1.9997166    5.2963351 
        7.99   -1.5116425    1.9808666    5.3870309 
           8   -1.5114987    1.9422997    5.5757845 
        8.01   -1.5112036    1.9047197    5.7579583 
        8.02   -1.5080734    1.9045495    5.7695746 
        8.03   -1.5102118    1.9393179    5.6119658 
        8.04   -1.5108693    1.9609374    5.5157836 
        8.05    -1.510833    1.9536822    5.5528983 
        8.06   -1.5115963    1.9450551    5.5959369 
        8.07   -1.5113497    1.9517871    5.5684667 
        8.08   -1.5125397    1.9641522    5.5106732 
        8.09   -1.5115247    1.9668041    5.5052783 
         8.1   -1.5098362    1.9375937    5.6550107 
        8.11    -1.511112    1.8767404    5.9506202 
        8.12   -1.5105687    1.8204133    6.2281079 
        8.13   -1.5110792    1.7967744    6.3439853 
        8.14   -1.5104272    1.8228916    6.2205796 
        8.15   -1.5102117    1.8902591    5.8988586 
        8.16   -1.5104899    1.9527722    5.5931404 
        8.17   -1.5108947    1.9817475    5.4417587 
        8.18   -1.5100841    1.9643471    5.5045409 
        8.19   -1.5114595    1.9336444    5.6218614 
         8.2   -1.5136963    1.9413523    5.5604517 
        8.21     -1.51398    1.9732717    5.3863684 
        8.22   -1.5137259    1.9988961    5.2393473 
        8.23   -1.5122802     2.003286    5.1920836 
        8.24   -1.5098964    1.9973209    5.1954546 
        8.25   -1.5106808    2.0124077    5.1010565 
        8.26   -1.5114939    2.0512114    4.9009631 
        8.27   -1.5122983    2.0885287    4.7115484 
        8.28    -1.511799    2.1004044    4.6502588 
        8.29   -1.5117839    2.0695863    4.7949742 
         8.3   -1.5114689    2.0172699    5.0488809 
        8.31   -1.5110841    1.9946174    5.1780696 
        8.32   -1.5115113     2.002785    5.1680863 
        8.33   -1.5130708     2.011773    5.1463515 
        8.34   -1.5132203    2.0198035    5.1275601 
        8.35   -1.5119249    2.0095557    5.1914365 
        8.36   -1.5106813    1.9784771    5.3480366 
        8.37   -1.5114909    1.9800792    5.3607099 
        8.38    -1.510752    1.9961148    5.3139536 
        8.39   -1.5109881    1.9865585    5.3788991 
         8.4   -1.5104352    1.9687204    5.4796425 
        8.41   -1.5100493    1.9697425    5.4895528 
        8.42   -1.5111026    1.9908987    5.3989907 
        8.43   -1.5099343    2.0252169    5.2493242 
        8.44   -1.5113887    2.0624944    5.0858803 
        8.45   -1.5112804    2.0801006    5.0210365 
        8.46   -1.5103461     2.058991    5.1356563 
        8.47   -1.5096573    2.0171426    5.3396312 
        8.48   -1.5103092      1.98771    5.4742318 
        8.49   -1.5112542    1.9738825    5.5215677 
         8.5   -1.5112682    1.9517819    5.5903886 
        8.51   -1.5108305    1.9201448    5.6883146 
        8.52   -1.5091137    1.9243604    5.6193608 
        8.53   -1.5111254    1.9812638    5.3080499 
        8.54   -1.5120994    2.0360293    5.0168301 
        8.55   -1.5127392    2.0298238    5.0147508 
        8.56   -1.5104422    1.9759872    5.2422182 
        8.57   -1.5100243    1.9488782    5.3481912 
        8.58   -1.5116481    1.9754904    5.2031269 
        8.59   -1.5108876    2.0113688     5.014767 
         8.6   -1.5128734    2.0253266    4.9283553 
        8.61   -1.5124713    1.9939345     5.063857 
        8.62   -1.5120234    1.9320406    5.3470215 
        8.63   -1.5101582    1.8991621    5.5035269 
        8.64   -1.5108527    1.9302538    5.3620052 
        8.65   -1.5108931    1.9872153    5.0968781 
        8.66   -1.5114113    2.0274804    4.9066978 
        8.67   -1.5107473    2.0447516    4.8353822 
        8.68   -1.5116621    2.0453386    4.8570896 
        8.69   -1.5107446    2.0300517    4.9724629 
         8.7   -1.5111325    2.0091396    5.1241994 
        8.71    -1.511522    1.9969543     5.241773 
        8.72   -1.5105156    1.9969194    5.3068032 
        8.73   -1.5116693    1.9808005    5.4349142 
        8.74   -1.5118889    1.9603859    5.5793648 
        8.75   -1.5128499    1.9650061    5.6121468 
        8.76    -1.513556    1.9542997    5.7146972 
        8.77   -1.5132465    1.8913219    6.0460276 
        8.78   -1.5127553    1.8447965    6.2897786 
        8.79   -1.5119707    1.8868616    6.1215393 
         8.8   -1.5090814    1.9225283     5.960738 
        8.81   -1.5098211    1.9376612    5.8742534 
        8.82   -1.5102329    1.9610288    5.7510429 
        8.83   -1.5103896    1.9722569    5.6860456 
        8.84   -1.5094551    1.9475266    5.7902902 
        8.85   -1.5097021     1.903031    5.9876111 
        8.86   -1.5083699     1.862207    6.1657814 
        8.87   -1.5087104    1.8647283    6.1282272 
        8.88   -1.5087753    1.9483163    5.7101476 
        8.89   -1.5085763    2.0518354    5.1950448 
         8.9    -1.510913    2.1056455    4.9092877 
        8.91    -1.510224    2.1090441    4.8800875 
        8.92   -1.5094332    2.0907254    4.9756531 
        8.93   -1.5089276     2.061134    5.1428426 
        8.94   -1.5076448    2.0076284     5.434275 
        8.95   -1.5085433    1.9190758      5.88686 
        8.96   -1.5085036    1.8194606    6.3874193 
        8.97   -1.5083539    1.7586394    6.7032179 
        8.98   -1.5099692     1.753622    6.7512263 
        8.99   -1.5103484    1.7653789    6.7048645 
           9   -1.5091808    1.7919087    6.5776798 
        9.01   -1.5094521     1.822255    6.4184021 
        9.02   -1.5100766    1.8461973    6.2786826 
        9.03   -1.5107342     1.875927    6.1097412 
        9.04   -1.5113973    1.9019677    5.9577512 
        9.05   -1.5102317     1.906648    5.9115847 
        9.06   -1.5086405    1.8818634     6.010357 
        9.07   -1.5088878    1.8515461    6.1457991 
        9.08    -1.508526    1.8308231    6.2507906 
        9.09   -1.5087746    1.8015665    6.3924137 
         9.1   -1.5092461    1.7791253    6.4897365 
        9.11   -1.5091326    1.8052659    6.3507566 
        9.12   -1.5083983    1.8651177    6.0415744 
        9.13   -1.5077584    1.9103907    5.7843994 
        9.14   -1.5059044    1.9269217    5.6560625 
        9.15   -1.5061611    1.9330116    5.5790068 
        9.16   -1.5060435     1.931441     5.550486 
        9.17   -1.5074879    1.9112355    5.6201643 
        9.18   -1.5082578     1.868595    5.8064785 
        9.19   -1.5079562    1.8207732     6.020572 
         9.2     -1.50768    1.8070709    6.0697862 
        9.21   -1.5065248    1.8499247    5.8487247 
        9.22   -1.5065815    1.9268203     5.462435 
        9.23   -1.5073563    1.9859936    5.1573691 
        9.24   -1.5080301    2.0203533    4.9851312 
        9.25   -1.5074881    2.0136148    5.0241194 
        9.26   -1.5082114    1.9879224    5.1664071 
        9.27   -1.5072233    1.9888839    5.2084675 
        9.28   -1.5072637    1.9738123    5.3240237 
        9.29   -1.5084612    1.9202185    5.5984424 
         9.3   -1.5085052    1.9120566    5.6581534 
        9.31   -1.5100997    1.9233642    5.6074282 
        9.32    -1.510967    1.9116191    5.6395935 
        9.33   -1.5122393     1.912213    5.6007341 
        9.34   -1.5114839    1.9531726    5.3768047 
        9.35   -1.5125598    2.0098801    5.0815469 
        9.36   -1.5111332    2.0476119    4.8894258 
        9.37   -1.5119065    2.0529593    4.8599195 
        9.38   -1.5120069    2.0342316     4.957634 
        9.39   -1.5115997    2.0161881    5.0640085 
         9.4   -1.5100438     2.014423     5.105401 
        9.41   -1.5112539    2.0210947    5.1122599 
        9.42   -1.5111458    2.0034605     5.238731 
        9.43   -1.5117669    1.9448567    5.5474118 
        9.44    -1.511979    1.8799772    5.8667556 
        9.45   -1.5113165    1.8619776    5.9425925 
        9.46    -1.511878    1.9042512    5.7075316 
        9.47   -1.5110173    1.9685554    5.3482286 
        9.48   -1.5102315    2.0077339    5.0899656 
        9.49   -1.5091805    2.0236542    4.9404869 
         9.5   -1.5097419    2.0249121     4.863196 
        9.51   -1.5089768    2.0114966    4.8569957 
        9.52   -1.5084091    2.0621419    4.5808093 
        9.53   -1.5094903    2.1191782    4.2936611 
        9.54   -1.5085592    2.1260113    4.2613561 
        9.55   -1.5077651    2.0917116    4.4406663 
        9.56   -1.5082668    2.0388809     4.720035 
        9.57    -1.509724    1.9950484    4.9712356 
        9.58   -1.5115488    1.9578698    5.1993488 
        9.59   -1.5105164    1.9282916    5.4003876 
         9.6   -1.5107528    1.9031336    5.5743869 
        9.61    -1.510795    1.8893699    5.6883854 
        9.62   -1.5096892     1.865462    5.8293673 
        9.63   -1.5092758    1.8753871    5.7980319 
        9.64   -1.5120474    1.9311853    5.5416913 
        9.65    -1.512719    1.9902109    5.2722906 
        9.66   -1.5118205    2.0192487    5.1548415 
        9.67   -1.5116696    2.0000308    5.2748703 
        9.68   -1.5113689    1.9538897    5.5367323 
        9.69   -1.5119005    1.9177876    5.7663857 
         9.7   -1.5117854    1.8929765    5.9499713 
        9.71   -1.5112613    1.8699863    6.1216357 
        9.72   -1.5124354    1.8545177    6.2475639 
        9.73   -1.5119344    1.8498743    6.3133553 
        9.74   -1.5125982    1.8444284    6.3596823 
        9.75   -1.5120343    1.8419203    6.3650246 
        9.76   -1.5118961    1.8768778    6.1705687 
        9.77   -1.5121935    1.9500737     5.783274 
        9.78   -1.5120899    2.0174436    5.4223203 
        9.79   -1.5110395    2.0390283    5.2885382 
         9.8   -1.5130989    2.0119111     5.399656 
        9.81   -1.5135841    1.9662273    5.6249098 
        9.82   -1.5150229    1.9404129    5.7766178 
        9.83   -1.5140141    1.9353097    5.8421579 
        9.84   -1.5150742     1.924552    5.9220213 
        9.85   -1.5149145    1.9011203    6.0507763 
        9.86   -1.5153488    1.8906449      6.11761 
        9.87   -1.5150762    1.8709099    6.2208239 
        9.88   -1.5142762    1.8435424    6.3474671 
        9.89   -1.5128259    1.8278306    6.4063763 
         9.9   -1.5137588    1.8393634    6.3249973 
        9.91   -1.5136915     1.857536     6.205945 
        9.92   -1.5139055    1.8323247     6.267942 
        9.93     -1.51164    1.7985085    6.3588636 
        9.94   -1.5109522    1.8118669    6.2196667 
        9.95   -1.5098247    1.9024838    5.7271503 
        9.96   -1.5106941    2.0150185    5.1424013 
        9.97   -1.5110615    2.0592768     4.888678 
        9.98   -1.5102146    2.0408425    4.9533011 
        9.99   -1.5102012    2.0129851    5.0923212 
          10   -1.5101075    1.9925211    5.2199979 
Loop time of 0.81837 on 8 procs for 10000 steps with 125 atoms

Performance: 1055757.042 tau/day, 12219.410 timesteps/s
169.9% CPU use with 1 MPI tasks x 8 OpenMP threads

MPI task timing breakdown:
Section |  min time  |  avg time  |  max time  |%varavg| %total
---------------------------------------------------------------
Pair    | 0.48222    | 0.48222    | 0.48222    |   0.0 | 58.92
Neigh   | 0.0039842  | 0.0039842  | 0.0039842  |   0.0 |  0.49
Comm    | 0.04685    | 0.04685    | 0.04685    |   0.0 |  5.72
Output  | 0.018012   | 0.018012   | 0.018012   |   0.0 |  2.20
Modify  | 0.26132    | 0.26132    | 0.26132    |   0.0 | 31.93
Other   |            | 0.00598    |            |       |  0.73

Nlocal:        125.000 ave         125 max         125 min
Histogram: 1 0 0 0 0 0 0 0 0 0
Nghost:        2225.00 ave        2225 max        2225 min
Histogram: 1 0 0 0 0 0 0 0 0 0
Neighs:        19030.0 ave       19030 max       19030 min
Histogram: 1 0 0 0 0 0 0 0 0 0

Total # of neighbors = 19030
Ave neighs/atom = 152.24000
Neighbor list builds = 31
Dangerous builds = 0
unfix nve
reset_timestep 0

### BRING SYSTEM TO REQUIRED STATE ###
variable tdamp equal ${timestep}*100
variable tdamp equal 0.001*100
variable pdamp equal ${timestep}*1000
variable pdamp equal 0.001*1000
fix npt all npt temp ${T} ${T} ${tdamp} iso ${p} ${p} ${pdamp}
fix npt all npt temp 2.5 ${T} ${tdamp} iso ${p} ${p} ${pdamp}
fix npt all npt temp 2.5 2.5 ${tdamp} iso ${p} ${p} ${pdamp}
fix npt all npt temp 2.5 2.5 0.1 iso ${p} ${p} ${pdamp}
fix npt all npt temp 2.5 2.5 0.1 iso 2 ${p} ${pdamp}
fix npt all npt temp 2.5 2.5 0.1 iso 2 2 ${pdamp}
fix npt all npt temp 2.5 2.5 0.1 iso 2 2 1
run 10000
Last active /omp style is pair_style lj/cut/omp
Per MPI rank memory allocation (min/avg/max) = 10.63 | 10.63 | 10.63 Mbytes
Time TotEng Temp Press 
          10   -1.5101075    1.9925211    5.2199979 
       10.01    -1.505912    1.9629534    5.3989185 
       10.02   -1.4917845    1.9497433     5.510648 
       10.03    -1.467849    1.9937643    5.3726779 
       10.04   -1.4315787    2.0549191     5.175945 
       10.05   -1.3864302    2.0839978    5.1418752 
       10.06   -1.3346469    2.0966571      5.19886 
       10.07   -1.2808871    2.1166085    5.2266649 
       10.08   -1.2283366    2.1418997    5.2180807 
       10.09   -1.1810741    2.1438444    5.2791429 
        10.1    -1.142175    2.1136836    5.4257729 
       10.11   -1.1138259    2.1005401     5.430571 
       10.12   -1.0935867    2.1453759    5.1283161 
       10.13   -1.0770939    2.2091432    4.7130811 
       10.14   -1.0638675    2.2380243    4.4305894 
       10.15   -1.0552185     2.233696    4.2766135 
       10.16   -1.0461832    2.2271455    4.1300627 
       10.17   -1.0379751    2.2202049     3.985087 
       10.18   -1.0275285    2.1929155    3.9307297 
       10.19   -1.0162893    2.1498225    3.9443445 
        10.2   -1.0035802    2.1087671    3.9496415 
       10.21  -0.98861137    2.0728811    3.9287756 
       10.22  -0.96730364     2.055115    3.8341806 
       10.23  -0.93977261    2.0748375    3.5992859 
       10.24  -0.90744925    2.1070848    3.3336663 
       10.25  -0.87030203     2.113413     3.188836 
       10.26  -0.83043695    2.1179529    3.0628683 
       10.27  -0.78683794    2.1704296    2.7710133 
       10.28  -0.73907098    2.2502358    2.4050495 
       10.29   -0.6882613    2.3066121    2.1661226 
        10.3   -0.6361179     2.309275    2.1665031 
       10.31  -0.58887262    2.2608324    2.3769826 
       10.32  -0.54774919    2.1911509    2.6684843 
       10.33  -0.50967127    2.1398474    2.8869433 
       10.34  -0.47025518    2.1381947    2.9239974 
       10.35  -0.42571716    2.1733515    2.8405527 
       10.36  -0.37886703    2.2005938    2.8013934 
       10.37  -0.33196414    2.1948409     2.891453 
       10.38  -0.28742816    2.1650377    3.0637648 
       10.39  -0.24064492    2.1716536    3.1033086 
        10.4  -0.19160666    2.2318314    2.9563906 
       10.41  -0.14156138    2.2563869    2.9344016 
       10.42 -0.093895918    2.2374123    3.0528518 
       10.43 -0.047447031    2.2700045    2.9846885 
       10.44 0.00055772583    2.3371359    2.7977858 
       10.45  0.048726174    2.3725623    2.7231102 
       10.46  0.094576886    2.3567895    2.8226263 
       10.47   0.13743735    2.3196415    2.9825567 
       10.48   0.17572266    2.3403468    2.9287872 
       10.49   0.21843993    2.4066135    2.7188457 
        10.5   0.26178015    2.4527889    2.5732135 
       10.51    0.3055646    2.4835138    2.4816767 
       10.52   0.34352089    2.5001685    2.4334812 
       10.53   0.38102775    2.4914508    2.4694146 
       10.54   0.41494478    2.4730478    2.5291265 
       10.55   0.44639393    2.4882241    2.4702676 
       10.56   0.47889122    2.5449829     2.273812 
       10.57    0.5114399    2.6071054    2.0647825 
       10.58   0.54101414    2.6330371    1.9809784 
       10.59   0.56513451    2.6182611    2.0340222 
        10.6   0.58453217    2.5857213    2.1448636 
       10.61   0.60067052     2.559655    2.2310871 
       10.62    0.6130503    2.5370054    2.2974321 
       10.63   0.62417265    2.5143712    2.3549765 
       10.64   0.63457677    2.5182977    2.3211631 
       10.65   0.64482637    2.5560068    2.1762113 
       10.66   0.65830712    2.6084376    1.9879211 
       10.67   0.67007239    2.6516086    1.8318164 
       10.68    0.6780912    2.6684942    1.7645507 
       10.69   0.68052647    2.6490411    1.8183928 
        10.7   0.67858761    2.5896847    2.0031197 
       10.71   0.67201236    2.5056517    2.2634984 
       10.72    0.6647906    2.4406617    2.4617935 
       10.73   0.65824962    2.4086676    2.5507899 
       10.74   0.65418231    2.3839607    2.6045373 
       10.75   0.65334452    2.3798456    2.5825714 
       10.76   0.65787272    2.4034149    2.4690987 
       10.77   0.66729293    2.4208624    2.3700159 
       10.78   0.68020773    2.4192971    2.3259531 
       10.79    0.6977818    2.4372433    2.2274205 
        10.8   0.72140704    2.4901823    2.0358836 
       10.81   0.74796583    2.5547036     1.826435 
       10.82   0.77814754    2.6044772    1.6870324 
       10.83   0.80841473    2.6095574    1.7044721 
       10.84   0.83790793    2.5775682    1.8501534 
       10.85   0.86528912    2.5505207    1.9917322 
       10.86   0.89410355    2.5486402     2.067989 
       10.87   0.92250601    2.5565194    2.1204039 
       10.88   0.94966673    2.5432287    2.2364846 
       10.89   0.97590967    2.5062431    2.4181993 
        10.9    1.0023763    2.4607295     2.612593 
       10.91    1.0303087    2.4266574    2.7503852 
       10.92    1.0624211    2.4792749    2.6194003 
       10.93    1.0991497    2.5881435    2.3187336 
       10.94    1.1389081    2.6652318    2.1119661 
       10.95    1.1771302    2.6897712    2.0632968 
       10.96     1.210149    2.6664873    2.1533364 
       10.97    1.2380298    2.6350443    2.2613123 
       10.98    1.2627391    2.6583276    2.2079951 
       10.99    1.2860104    2.7128397    2.0614349 
          11    1.3058012    2.7525562    1.9519606 
       11.01    1.3209527    2.7742975    1.8904219 
       11.02    1.3281664    2.7785647    1.8707141 
       11.03    1.3267507    2.7633633    1.8931029 
       11.04    1.3187414    2.7555079     1.882465 
       11.05    1.3038021    2.7593977    1.8250415 
       11.06    1.2774654    2.7489827    1.7871036 
       11.07    1.2390495    2.7214443    1.7749204 
       11.08    1.1878066    2.6907212     1.749079 
       11.09    1.1203241    2.6477618    1.7308992 
        11.1    1.0385259    2.5719513    1.7787534 
       11.11   0.94408285    2.4689806    1.8796095 
       11.12   0.84537238    2.3662266    1.9683561 
       11.13   0.74596397    2.2844763    1.9948636 
       11.14   0.65773059     2.222744    1.9775046 
       11.15    0.5819405    2.1762015    1.9349779 
       11.16   0.51987503    2.1459692    1.8689346 
       11.17   0.47323855    2.1255997    1.7998278 
       11.18   0.43838943    2.1138805    1.7276341 
       11.19   0.41760991    2.1156125    1.6418006 
        11.2   0.40717979    2.1363327    1.5250798 
       11.21   0.40719169    2.1758956    1.3816052 
       11.22   0.41704906    2.2136029    1.2709139 
       11.23   0.43403774    2.2323134    1.2395072 
       11.24   0.45627607    2.2343619    1.2800153 
       11.25   0.48456893    2.2233026    1.3806701 
       11.26   0.51986165    2.2023437    1.5279376 
       11.27   0.55880396    2.1857718    1.6740594 
       11.28   0.60477814     2.184275    1.7877497 
       11.29   0.65590035    2.1973854    1.8629923 
        11.3   0.71180659    2.2335081    1.8735321 
       11.31   0.76940647    2.2925125    1.8155634 
       11.32   0.82600079    2.3432089    1.7684506 
       11.33   0.87848662    2.3739277    1.7579026 
       11.34   0.92877348     2.440066    1.6398835 
       11.35   0.97387983    2.5352615    1.4341238 
       11.36    1.0112752    2.6016899    1.3004109 
       11.37    1.0420254    2.6281128    1.2770606 
       11.38    1.0646302    2.6219798      1.34357 
       11.39    1.0812437    2.5985684    1.4572477 
        11.4     1.093569     2.579549    1.5566808 
       11.41    1.1030678    2.5706055     1.624401 
       11.42    1.1120217    2.5610457    1.6898058 
       11.43    1.1176602    2.5533165    1.7443327 
       11.44    1.1219558    2.5506107    1.7825324 
       11.45    1.1260574    2.5382064    1.8458291 
       11.46    1.1275375    2.5163624    1.9312318 
       11.47    1.1295281    2.5001698    1.9992966 
       11.48    1.1316875    2.4916624    2.0408733 
       11.49     1.133951    2.4824413    2.0762901 
        11.5    1.1358232    2.4780048    2.0901459 
       11.51    1.1389638    2.4934773    2.0453209 
       11.52    1.1416494    2.5408389    1.9151122 
       11.53    1.1430011    2.5879593     1.795685 
       11.54    1.1420252    2.5764132    1.8499993 
       11.55     1.140272    2.5154577    2.0515799 
       11.56     1.137556    2.4690072    2.2160989 
       11.57    1.1349029    2.4580043    2.2746916 
       11.58    1.1311436    2.4728125    2.2445307 
       11.59    1.1243102    2.5008807    2.1554924 
        11.6    1.1178098      2.53391    2.0347303 
       11.61    1.1092916    2.5677651     1.894392 
       11.62    1.0944357    2.6045505    1.7297031 
       11.63    1.0721858    2.6332665    1.5753291 
       11.64    1.0409475    2.6377008     1.479286 
       11.65   0.99889008    2.6169467     1.445911 
       11.66   0.94901769    2.5839809    1.4453017 
       11.67    0.8880061    2.5448212    1.4618284 
       11.68   0.82054617    2.4724513    1.5793169 
       11.69   0.75298989    2.3440451    1.8671467 
        11.7   0.69112554    2.2075378    2.1907578 
       11.71    0.6398032    2.1251748    2.3684406 
       11.72   0.59807482    2.1224901    2.3192612 
       11.73   0.56486834    2.1771684    2.1068671 
       11.74   0.53793805    2.2234571    1.9236969 
       11.75    0.5197466    2.2208431    1.8958005 
       11.76   0.50853662    2.2030394    1.9305926 
       11.77   0.50559194    2.2125888    1.9085002 
       11.78   0.50899669    2.2366511    1.8628001 
       11.79   0.52032382    2.2463359    1.8788755 
        11.8   0.53846197    2.2278684    1.9943892 
       11.81   0.56461986    2.1968441    2.1611316 
       11.82   0.60010955    2.1831525    2.2876554 
       11.83   0.64547007    2.2013764    2.3262265 
       11.84   0.70059815    2.2632637    2.2431978 
       11.85   0.76703303     2.367855    2.0486838 
       11.86   0.84053205    2.4956795    1.8039916 
       11.87   0.91812298    2.5921239    1.6681477 
       11.88   0.99378926    2.6343824      1.69987 
       11.89    1.0616163    2.6693808    1.7567367 
        11.9    1.1208327     2.707372    1.8034804 
       11.91      1.16774    2.7070168    1.9478488 
       11.92    1.2066743    2.6642068     2.199594 
       11.93    1.2346605    2.6168475    2.4382934 
       11.94    1.2578712    2.5997903    2.5608694 
       11.95    1.2758137    2.6177371    2.5471916 
       11.96    1.2857333    2.6675657    2.4052433 
       11.97    1.2900321    2.7340904      2.18954 
       11.98    1.2859239    2.7833381    2.0047923 
       11.99    1.2732288    2.8014168    1.8997803 
          12    1.2543127    2.7930481    1.8693002 
       12.01    1.2293183    2.7615154    1.9056921 
       12.02    1.1990632    2.7134695    1.9879773 
       12.03    1.1669242    2.6609777    2.0773014 
       12.04    1.1364307    2.6251682    2.1078962 
       12.05    1.1057857    2.6284394    2.0123958 
       12.06     1.076567    2.6481844    1.8625383 
       12.07    1.0460262    2.6638631    1.7243009 
       12.08    1.0122114    2.6664887    1.6311376 
       12.09   0.97965321    2.6326089    1.6608409 
        12.1   0.94803837    2.5436719    1.8646775 
       12.11   0.91920178    2.4567137    2.0731179 
       12.12   0.89544182    2.4504693    2.0552979 
       12.13   0.87612388    2.4920838    1.9034259 
       12.14    0.8574772    2.5160364    1.8098341 
       12.15   0.83974249    2.5030688    1.8393501 
       12.16   0.82277167    2.4602755    1.9735135 
       12.17   0.80956718     2.407129     2.154197 
       12.18    0.7995905    2.3692144      2.29788 
       12.19   0.79546608    2.3635753    2.3504461 
        12.2    0.7941285    2.3806693     2.333725 
       12.21   0.79374651    2.3972511    2.3146402 
       12.22   0.79649669    2.4027753    2.3289499 
       12.23   0.80380616    2.3985764    2.3751012 
       12.24   0.81249967    2.3996705    2.4052656 
       12.25   0.82587101    2.4287436    2.3570511 
       12.26   0.84076701    2.4848332    2.2346001 
       12.27   0.85640882    2.5287528     2.159115 
       12.28   0.87249628    2.5245821     2.242088 
       12.29   0.88825775    2.4692217    2.4913421 
        12.3   0.90402317    2.3898588    2.8164546 
       12.31   0.92349643    2.3383798    3.0545393 
       12.32   0.94804015    2.3274181    3.1557283 
       12.33    0.9800808    2.3865214    3.0368633 
       12.34     1.024827    2.5172354    2.7166506 
       12.35    1.0771107    2.5978907    2.5545419 
       12.36    1.1365537    2.6238695    2.5748884 
       12.37    1.1993767    2.6256184    2.6858941 
       12.38    1.2671901    2.6199867    2.8326376 
       12.39    1.3380394    2.6307332      2.93343 
        12.4    1.4094877    2.6774044    2.9196953 
       12.41    1.4795791    2.7506034    2.8084176 
       12.42     1.544408    2.8468622    2.6086192 
       12.43    1.6035838    2.9012146    2.5051358 
       12.44    1.6459658     2.938286    2.4175221 
       12.45    1.6736253    2.9926615    2.2530377 
       12.46    1.6839687    3.0183076    2.1420334 
       12.47    1.6737823    2.9860739    2.1664958 
       12.48     1.646064    2.9185758    2.2654431 
       12.49    1.6058139    2.8486041    2.3480964 
        12.5    1.5516447     2.773435    2.4122295 
       12.51    1.4907989    2.7213542    2.3830191 
       12.52    1.4244484    2.6900314    2.2678919 
       12.53    1.3542574    2.6728254    2.0921986 
       12.54    1.2804083    2.6628378    1.8831893 
       12.55    1.2066405    2.6388562      1.71035 
       12.56    1.1355855    2.6034388    1.5759032 
       12.57    1.0683175    2.5796938    1.4234133 
       12.58    1.0090072    2.5852993    1.2161613 
       12.59   0.95772143    2.5938904     1.033072 
        12.6   0.91222468    2.5812909   0.94328972 
       12.61   0.87563142    2.5507244   0.94331353 
       12.62   0.84679931     2.505126    1.0210161 
       12.63   0.82419523    2.4487743    1.1565944 
       12.64   0.80583655    2.3886009    1.3195313 
       12.65   0.79459465    2.3367153    1.4691126 
       12.66    0.7889143    2.3157776    1.5352565 
       12.67   0.78746319    2.3274087    1.5105946 
       12.68   0.79310765    2.3456367    1.4706139 
       12.69   0.80270289       2.3547    1.4590202 
        12.7   0.81613037    2.3672046    1.4454589 
       12.71   0.83209544    2.3904513    1.4116797 
       12.72   0.85139512     2.411881    1.3941506 
       12.73   0.87295134    2.4356938    1.3832955 
       12.74   0.89723999     2.482907    1.3296285 
       12.75   0.92261256    2.5028066    1.3701735 
       12.76   0.94934312    2.4707061    1.5697325 
       12.77   0.97649962    2.4347129    1.7911369 
       12.78    1.0049227    2.4380605    1.9109175 
       12.79    1.0354514    2.4465256     2.015924 
        12.8    1.0689535    2.4334415    2.1749164 
       12.81    1.1063619    2.4527624    2.2422128 
       12.82    1.1441606    2.5144968    2.1855309 
       12.83    1.1843775    2.5708908    2.1336411 
       12.84    1.2217593    2.6166869    2.0951694 
       12.85    1.2570999    2.6591479     2.050943 
       12.86    1.2887283    2.6961925    2.0063349 
       12.87    1.3156928    2.7373076    1.9400142 
       12.88     1.334771    2.7837216    1.8540271 
       12.89    1.3470125     2.792195    1.8716999 
        12.9    1.3494111      2.73677     2.058419 
       12.91    1.3437251    2.6791381    2.2425387 
       12.92    1.3339786    2.6439292     2.347403 
       12.93    1.3154882     2.649154    2.3129705 
       12.94    1.2906807    2.6640909    2.2257162 
       12.95    1.2560458    2.6569084    2.1751882 
       12.96    1.2131111    2.6274211    2.1699184 
       12.97    1.1608836    2.5698398    2.2258129 
       12.98    1.1016864    2.5010915    2.2978641 
       12.99    1.0347643    2.4472419    2.3132111 
          13   0.96616717    2.3920584    2.3218349 
       13.01   0.89635373    2.3174131    2.3759023 
       13.02   0.83130925    2.2530423    2.4039847 
       13.03    0.7734896    2.2153652    2.3662682 
       13.04   0.72097111    2.1810367    2.3256205 
       13.05   0.67888412    2.1443541    2.3010853 
       13.06   0.64618817    2.1603084    2.1399194 
       13.07   0.62301785    2.2478704    1.7956388 
       13.08   0.60652064    2.3112218    1.5353892 
       13.09    0.5951908    2.3201252    1.4496129 
        13.1   0.58953288    2.3019714    1.4634944 
       13.11   0.58960762    2.2934149    1.4715945 
       13.12   0.59536764    2.3051005    1.4419278 
       13.13   0.60697451    2.3159691    1.4329585 
       13.14   0.62604736    2.3040784    1.5071789 
       13.15   0.65235173    2.2819676    1.6289357 
       13.16   0.68713654    2.2922821    1.6826306 
       13.17   0.73279558     2.339298    1.6606783 
       13.18   0.79087839    2.3844198    1.6728845 
       13.19   0.86270342    2.4146585    1.7593292 
        13.2     0.948335    2.4412098    1.8888976 
       13.21    1.0457497    2.4719281    2.0322885 
       13.22    1.1516637    2.5153522    2.1529584 
       13.23    1.2604236    2.5955622    2.1703384 
       13.24     1.363727    2.7042545     2.092301 
       13.25    1.4520874    2.7866736    2.0557256 
       13.26    1.5211561    2.8182132    2.1227559 
       13.27     1.567149    2.8370388    2.1890065 
       13.28    1.5941742    2.8435338    2.2594323 
       13.29     1.605505    2.8275255    2.3678996 
        13.3    1.6038159    2.7828359    2.5320374 
       13.31    1.5945778    2.7366459    2.6792594 
       13.32    1.5782028    2.6998885    2.7750747 
       13.33    1.5589735    2.6798498    2.8017054 
       13.34     1.535241    2.6438087    2.8439743 
       13.35    1.5088774     2.622297    2.8222881 
       13.36    1.4787335    2.6326601    2.6905997 
       13.37    1.4451413    2.6473542    2.5276352 
       13.38     1.409189    2.6695896    2.3334815 
       13.39    1.3679929    2.6884683    2.1411941 
        13.4    1.3237524    2.6880749     2.000384 
       13.41    1.2756215    2.6783761    1.8868393 
       13.42     1.225135    2.6554914    1.8147861 
       13.43    1.1713522    2.6086833    1.8145844 
       13.44    1.1180777    2.5387056    1.8889536 
       13.45    1.0663981    2.4447998    2.0360859 
       13.46    1.0215424    2.3592467    2.1652831 
       13.47   0.98165255    2.3138209    2.1785009 
       13.48   0.94798877    2.3447341    1.9798239 
       13.49   0.91952646    2.4032809    1.7098715 
        13.5   0.89568055    2.4125378    1.5867474 
       13.51   0.87645034    2.3852275    1.5814222 
       13.52   0.85964729     2.369669    1.5602495 
       13.53   0.84730633    2.3720342    1.5061455 
       13.54   0.83902826    2.3732915    1.4712492 
       13.55   0.83478191    2.3513111     1.516253 
       13.56   0.83469382    2.3067759    1.6375328 
       13.57    0.8406859     2.271196    1.7478575 
       13.58   0.85358628     2.272747    1.7681018 
       13.59   0.87305241    2.3211564    1.6720484 
        13.6   0.90094597    2.3980894    1.5158904 
       13.61   0.93523446    2.4658671    1.4046664 
       13.62   0.97516883    2.5078106     1.386151 
       13.63    1.0180514    2.5303292     1.440972 
       13.64    1.0649345     2.544349    1.5385597 
       13.65    1.1146966    2.5468006    1.6819864 
       13.66    1.1705654    2.5321452     1.882575 
       13.67    1.2316844    2.5257179    2.0631039 
       13.68    1.2979248    2.5752901    2.0918465 
       13.69    1.3709051    2.6594948    2.0308748 
        13.7    1.4472578    2.7132095    2.0564743 
       13.71    1.5214898    2.7325825     2.174212 
       13.72    1.5924995    2.7654662    2.2498437 
       13.73    1.6581136    2.8232105    2.2459471 
       13.74     1.717951    2.8760411    2.2412271 
       13.75     1.766377    2.9102108     2.270773 
       13.76    1.8016459    2.8938404    2.4177406 
       13.77    1.8256405    2.8421682    2.6386933 
       13.78    1.8365511    2.8033569    2.7969887 
       13.79    1.8364992    2.7649479    2.9191099 
        13.8    1.8271108    2.7437244    2.9564276 
       13.81    1.8062202    2.7819213    2.7944907 
       13.82    1.7715221    2.8337623     2.554379 
       13.83    1.7142855    2.8537914    2.3530439 
       13.84    1.6319874    2.8468584    2.1815806 
       13.85     1.521591    2.7818243    2.1239789 
       13.86    1.3896243    2.6386532    2.2452252 
       13.87    1.2487687    2.4532046    2.4688767 
       13.88    1.1219384    2.2858617    2.6580094 
       13.89    1.0187266    2.2256678    2.5840691 
        13.9   0.93992248    2.2680252    2.2629202 
       13.91   0.88045423    2.2947378    2.0110584 
       13.92   0.83629853    2.2882933    1.8788576 
       13.93    0.8066938    2.2941832    1.7463434 
       13.94   0.78709045    2.3162589    1.5988531 
       13.95   0.77341318     2.313767    1.5424254 
       13.96   0.76774117    2.2304831    1.7233619 
       13.97   0.76796467    2.1389684    1.9390769 
       13.98   0.77495243    2.2024926    1.7675048 
       13.99   0.79055665    2.2318904    1.6974556 
          14    0.8136222     2.229636    1.7263897 
       14.01   0.84221638    2.2354263    1.7469173 
       14.02    0.8775772    2.2682912     1.709141 
       14.03   0.91992082    2.2933174    1.7023261 
       14.04   0.96564159    2.3239623    1.6874857 
       14.05    1.0177386    2.3786574    1.6187124 
       14.06    1.0717158    2.4271302    1.5678732 
       14.07    1.1267612    2.4762982    1.5160036 
       14.08    1.1802719    2.5369391    1.4347873 
       14.09    1.2306334    2.5678917    1.4303909 
        14.1     1.278573    2.5448795    1.5591728 
       14.11     1.321841    2.6470414     1.362571 
       14.12    1.3588317    2.7359913    1.1985199 
       14.13    1.3866468    2.7367477    1.2660874 
       14.14    1.4066794    2.7074736    1.4157195 
       14.15    1.4201682    2.6773854    1.5644001 
       14.16    1.4269384    2.6397878    1.7198082 
       14.17    1.4314244    2.6065529    1.8466426 
       14.18    1.4321467    2.6161774    1.8390574 
       14.19    1.4295281    2.6561316    1.7310717 
        14.2    1.4201578    2.7021514    1.5892674 
       14.21    1.4053385    2.7445744    1.4478996 
       14.22    1.3829803    2.7663695    1.3555926 
[...]
   27270   0.54413863    2.1760348    2.2423823   0.50928399 
   27280   0.58720724    2.1522124    2.4414201    0.5094112 
   27290   0.63660047    2.1414693    2.6018324   0.50948603 
   27300   0.69137108    2.1888203    2.5889735   0.50949031 
   27310   0.74967204    2.2776972    2.4479031   0.50942449 
   27320   0.80917654    2.3482847     2.348028   0.50930297 
   27330   0.86179045     2.389717    2.3147284    0.5091371 
   27340   0.90790748    2.4228577    2.2912542    0.5089311 
   27350   0.94696825    2.4589826     2.247447   0.50868766 
   27360   0.97863469    2.4902876    2.2089894   0.50841153 
   27370    1.0033742    2.4826076    2.2736654   0.50810589 
   27380    1.0236882    2.4459502    2.4149066   0.50776308 
   27390     1.039996    2.4336258    2.4818631   0.50736764 
   27400    1.0531069    2.4568397    2.4428954   0.50691149 
   27410    1.0664625    2.4799379    2.4012377   0.50639765 
   27420    1.0779366    2.4847463    2.4060181   0.50583026 
   27430    1.0885215      2.46913    2.4632671   0.50520838 
   27440    1.0972669    2.4402324    2.5505391   0.50452511 
   27450    1.1054983    2.4153287    2.6200583   0.50377018 
   27460    1.1157816    2.4025191      2.65136   0.50293511 
   27470    1.1271878    2.3982579    2.6534145   0.50201571 
   27480    1.1402953    2.4130504    2.5996602   0.50101166 
   27490     1.154103    2.4595846    2.4589537   0.49992948 
   27500    1.1704262    2.5023418    2.3350694   0.49878469 
   27510    1.1872662    2.5081815    2.3154027     0.497591 
   27520    1.2031279    2.5236866    2.2682773   0.49635232 
   27530    1.2189857    2.5686271    2.1403742   0.49507502 
   27540    1.2355489     2.596424    2.0597223   0.49377303 
   27550    1.2479539     2.594283    2.0551301   0.49245597 
   27560    1.2585571    2.5841328    2.0639362   0.49112533 
   27570    1.2657856    2.5966134    1.9978055   0.48978135 
   27580     1.272216    2.6237145    1.8830182   0.48843188 
   27590    1.2763862    2.6560246     1.752073    0.4870906 
   27600    1.2759451    2.6815924     1.643773   0.48577317 
   27610     1.272845    2.6616258    1.6649244   0.48449159 
   27620     1.262612    2.6161198    1.7536459   0.48324429 
   27630    1.2491103    2.6024012    1.7590039   0.48202283 
   27640    1.2328233    2.5858511    1.7710237   0.48082558 
   27650    1.2128557    2.5585997    1.8105998   0.47965125 
   27660    1.1874623    2.5283357     1.855961   0.47849567 
   27670    1.1612613    2.4715702     1.969433   0.47735289 
   27680    1.1325776    2.3920906    2.1326896   0.47620983 
   27690    1.1038696     2.336007    2.2209896   0.47504864 
   27700    1.0765685    2.3261257    2.1750054   0.47385976 
   27710    1.0521906    2.3262711    2.0915575   0.47264767 
   27720    1.0311165    2.3574834      1.92154   0.47142326 
   27730    1.0116566    2.4198628    1.6713525   0.47020702 
   27740   0.99480797    2.4547848    1.5034012   0.46902713 
   27750   0.98191884    2.4291334    1.5106494   0.46790278 
   27760   0.96754119    2.3572977    1.6477419   0.46683369 
   27770   0.95655741    2.2992644    1.7572621   0.46580531 
   27780    0.9511956    2.2898669     1.747358   0.46480569 
   27790     0.952213    2.3043363    1.6833154   0.46383528 
   27800   0.96062011    2.3223498    1.6235138   0.46290123 
   27810   0.97725137      2.32281    1.6246001   0.46201001 
   27820     1.001642    2.3211418    1.6448288   0.46116191 
   27830    1.0336176    2.3622868    1.5700829   0.46035582 
   27840    1.0747521    2.4354905    1.4326777    0.4596002 
   27850    1.1236216    2.5025542    1.3330452   0.45891025 
   27860     1.177295    2.5458021    1.3156364   0.45829732 
   27870      1.23137     2.565103    1.3736105   0.45776354 
   27880    1.2853468    2.5812591    1.4480904   0.45730255 
   27890    1.3382833    2.6162627    1.4789353   0.45690614 
   27900    1.3872678     2.654614    1.5011745   0.45657022 
   27910    1.4322189    2.6653213    1.5923778   0.45629134 
   27920    1.4707638    2.6313389    1.7890071   0.45605832 
   27930    1.5047122    2.5700534    2.0386364   0.45584828 
   27940    1.5354941    2.5403735    2.1835515   0.45563322 
   27950    1.5655472    2.5679455    2.1560069   0.45539647 
   27960    1.5925274     2.643159    1.9834961   0.45514106 
   27970    1.6178636    2.7272493    1.7768353   0.45488625 
   27980    1.6372813    2.7833865    1.6361494   0.45465563 
   27990    1.6467471    2.8048892    1.5811273    0.4544658 
   28000    1.6469287    2.8005115    1.5910287   0.45432356 
   28010    1.6377094     2.786416    1.6229236   0.45422829 
   28020    1.6171537    2.7662932    1.6622613   0.45417651 
   28030    1.5874102    2.7191614    1.7580349   0.45416309 
   28040    1.5509356    2.6358729    1.9264479   0.45417644 
   28050    1.5070528    2.5931483    1.9685919   0.45419876 
   28060    1.4578792    2.6208179    1.8116856   0.45422597 
   28070    1.4005708     2.615006    1.7158692   0.45427379 
   28080    1.3395466    2.5731622    1.6975787   0.45435363 
   28090    1.2711104     2.558659    1.5978199   0.45446974 
   28100    1.2006214    2.5412154    1.4975761   0.45463304 
   28110    1.1271483    2.5051654     1.441873   0.45485534 
   28120    1.0570157    2.4615794    1.4158073   0.45514375 
   28130   0.99196812    2.4127267    1.4198218   0.45550174 
   28140   0.93675008    2.3565393    1.4648273   0.45592911 
   28150   0.89160246    2.3038231    1.5210076   0.45642114 
   28160   0.85987358    2.2885287    1.5017553   0.45697253 
   28170   0.83510586    2.3038599    1.4140665    0.4575858 
   28180   0.82080217    2.3324016    1.3052838   0.45827125 
   28190   0.81144855    2.3584643    1.2124875   0.45904193 
   28200   0.80840638    2.3736394    1.1602299   0.45990909 
   28210   0.81074733    2.3921708    1.1136989   0.46088005 
   28220   0.81661134    2.4136149    1.0746822   0.46196097 
   28230   0.82607537    2.4163368    1.1013891    0.4631565 
   28240    0.8356778    2.3956287    1.2053803   0.46446402 
   28250   0.84940853    2.3662797    1.3514331   0.46587202 
   28260   0.86889529    2.3431302    1.4975537   0.46736385 
   28270   0.89174599    2.3328723    1.6161409   0.46892242 
   28280   0.91937955    2.3449676     1.675868   0.47053373 
   28290    0.9490913    2.3958687    1.6263143   0.47219094 
   28300   0.97824884    2.4805121    1.4801036    0.4738995 
   28310    1.0064141    2.5550523    1.3595504   0.47567506 
   28320    1.0340542     2.597005    1.3351591   0.47753095 
   28330    1.0582664    2.5952743    1.4391556   0.47946935 
   28340    1.0784663     2.539942    1.6942076   0.48147701 
   28350    1.1002259    2.4885573    1.9453383    0.4835242 
   28360    1.1227388    2.5206168    1.9739031   0.48558248 
   28370    1.1437706    2.5705484    1.9492595    0.4876452 
   28380    1.1652147    2.5725845    2.0526637   0.48971208 
   28390    1.1841361    2.5621477    2.1851454   0.49177079 
   28400    1.2026691    2.5844861    2.2179027   0.49380574 
   28410    1.2172718    2.6349553    2.1536722   0.49581184 
   28420    1.2257857    2.6913016    2.0528483   0.49779507 
   28430    1.2271331    2.7336523    1.9747054   0.49976589 
   28440    1.2195179     2.741534    1.9786381   0.50173213 
   28450    1.2033582    2.7139456    2.0690063   0.50369247 
   28460    1.1782095    2.6867434    2.1429376   0.50563659 
   28470    1.1461908    2.6853398    2.1285048    0.5075558 
   28480    1.1042842    2.6705907    2.1327929   0.50945004 
   28490    1.0555897    2.6127585    2.2469867   0.51131731 
   28500    1.0043316     2.538192    2.4013859   0.51314434 
   28510   0.95031342     2.497558    2.4473682    0.5149141 
   28520   0.89436757    2.4986086    2.3601306   0.51662117 
   28530   0.83703671    2.5071036    2.2417198    0.5182747 
   28540   0.78251074     2.500981    2.1684491   0.51988803 
   28550    0.7303309     2.482656    2.1398588   0.52146992 
   28560   0.68599812    2.4638654     2.132083    0.5230241 
   28570   0.64783415    2.4351122     2.174008    0.5245513 
   28580   0.62109902    2.3810322    2.3173349   0.52604604 
   28590   0.60524823    2.3175514      2.51099   0.52749199 
   28600   0.60014872    2.2895599    2.6139311   0.52886789 
   28610   0.60245787    2.3086513    2.5793093   0.53016238 
   28620    0.6101978    2.3479573    2.4817699    0.5313792 
   28630   0.62027486    2.3860066    2.3857692   0.53252981 
   28640   0.63274523    2.4057378    2.3462499    0.5336255 
   28650   0.64846076    2.4055855    2.3715302   0.53467132 
   28660   0.66384528    2.3971076    2.4227988    0.5356651 
   28670   0.67979931    2.3941742    2.4565196   0.53660157 
   28680   0.69791808    2.4143389    2.4220789    0.5374777 
   28690   0.71638801    2.4469939    2.3523431   0.53829779 
   28700   0.73675303    2.4583689     2.350605   0.53906919 
   28710   0.75544682    2.4760205    2.3324592   0.53979363 
   28720   0.77338021    2.4990072    2.3020321   0.54047349 
   28730   0.79265538    2.5101485    2.3163491   0.54111213 
   28740   0.81023109    2.5120228    2.3668266   0.54170827 
   28750   0.82755013    2.5148408     2.423598   0.54225656 
   28760   0.84444688    2.5232134    2.4699986   0.54275071 
   28770   0.85918705    2.5286085    2.5261023   0.54318533 
   28780   0.87347152    2.5175237    2.6287893   0.54355369 
   28790   0.88553143    2.4880381    2.7712097   0.54384389 
   28800   0.90099204    2.4967108    2.7785577   0.54404119 
   28810   0.91242013    2.5721678     2.553267   0.54414638 
   28820   0.92388969    2.6588872    2.2750966   0.54418462 
   28830   0.93082298    2.7026021    2.1166279   0.54418743 
   28840   0.93211554    2.6934512        2.114    0.5441734 
   28850    0.9260467    2.6669104    2.1569481   0.54414406 
   28860   0.91408056    2.6612166    2.1263429   0.54409564 
   28870   0.89496604    2.6694609    2.0369444   0.54403161 
   28880   0.86786605    2.6648122    1.9703691   0.54396179 
   28890   0.83260074    2.6348499    1.9701996   0.54389364 
   28900   0.78934192    2.5860187     2.023607   0.54382739 
   28910    0.7397216     2.523717     2.118658   0.54375681 
   28920   0.68619311    2.4508266    2.2467751    0.5436707 
   28930   0.62937704    2.3854688    2.3498619   0.54355444 
   28940    0.5716557    2.3284463    2.4239072   0.54339594 
   28950   0.51595393    2.2552015    2.5414837   0.54318572 
   28960   0.46482617    2.1827283    2.6509802   0.54291045 
   28970   0.42042167    2.1788195    2.5541581   0.54255959 
   28980    0.3810659    2.2075509    2.3625166   0.54214349 
   28990   0.34908312     2.209757    2.2648527   0.54168312 
   29000   0.32270629    2.1950073    2.2368513   0.54119063 
   29010    0.3031091    2.1738631    2.2469583   0.54066964 
   29020   0.29065723    2.1548732    2.2674798    0.5401193 
   29030   0.28835737    2.1443068    2.2814921    0.5395374 
   29040   0.29510193    2.1557721    2.2494563   0.53892272 
   29050   0.31157915    2.1901819    2.1745505   0.53827915 
   29060   0.34013503    2.2190397    2.1482845   0.53761464 
   29070   0.38154798     2.235592    2.1935088   0.53693208 
   29080   0.43531863    2.2596642    2.2514722   0.53622686 
   29090   0.50356674    2.2915273    2.3212417   0.53549205 
   29100   0.58335152    2.3323156    2.3932962   0.53471955 
   29110   0.67387944    2.3804088    2.4659212   0.53390092 
   29120   0.76641059    2.4269933    2.5466236   0.53302769 
   29130   0.85281616    2.4591202    2.6524857   0.53209013 
   29140   0.92762562    2.4963586    2.7124171   0.53107683 
   29150   0.98741482    2.5249145    2.7595986   0.52998061 
   29160    1.0314623    2.5284683     2.839737   0.52879587 
   29170    1.0616612     2.533402     2.878906   0.52751455 
   29180    1.0810393    2.5530707    2.8423116   0.52613312 
   29190    1.0916809    2.5722491    2.7783889    0.5246563 
   29200    1.0978426    2.5717809     2.748433   0.52309193 
   29210    1.0978761    2.5703345     2.698253   0.52144526 
   29220    1.0937371    2.5964537    2.5530389   0.51972439 
   29230    1.0871125    2.6163651    2.4169523   0.51794654 
   29240    1.0750722    2.6109786    2.3456007   0.51612851 
   29250    1.0617648    2.5908582    2.3134285   0.51428012 
   29260    1.0440629    2.5571022     2.310807   0.51240636 
   29270    1.0260592    2.5168969    2.3183217    0.5105088 
   29280    1.0044949    2.4911461    2.2720369   0.50858843 
   29290   0.98524935    2.5075594    2.1039259   0.50665256 
   29300   0.96635684    2.5595739    1.8411837    0.5047221 
   29310   0.94628158    2.5796479    1.6786411   0.50282678 
   29320   0.92746658    2.5486132    1.6759056   0.50098562 
   29330    0.9059545    2.4797592    1.7881444   0.49919944 
   29340   0.88474958    2.4115274    1.9043278   0.49745606 
   29350   0.86496314    2.3806829    1.9189443   0.49574303 
   29360   0.84906932    2.3762201    1.8615352   0.49405834 
   29370   0.83616988    2.3951707    1.7429329   0.49240895 
   29380   0.82754783    2.4225428     1.611519   0.49080835 
   29390   0.82242389    2.4363151    1.5301943   0.48927115 
   29400   0.81987407    2.4304202    1.5144453    0.4878063 
   29410   0.82098401    2.4163125    1.5317134   0.48641518 
   29420   0.82666707    2.4147527     1.524763   0.48509551 
   29430   0.83628182    2.4282136    1.4863464   0.48384733 
   29440   0.85006638    2.4427611    1.4561659   0.48267386 
   29450   0.86964628    2.4482407     1.464663   0.48157738 
   29460    0.8941474    2.4523199    1.4905993   0.48055613 
   29470   0.92368361    2.4716032    1.4907647    0.4796065 
   29480   0.95831076     2.500101    1.4832565   0.47872733 
   29490   0.99886772    2.5193644    1.5199625   0.47791797 
   29500    1.0453889    2.5273801    1.6060068   0.47717302 
   29510    1.0953041    2.5316172    1.7148908   0.47648173 
   29520    1.1486258    2.5393866     1.820869   0.47583075 
   29530      1.20553    2.5593722    1.8962349   0.47520726 
   29540    1.2647083    2.5947747    1.9298966   0.47460208 
   29550    1.3208004    2.6299244    1.9579739   0.47401062 
   29560    1.3756179    2.6555548     2.006567   0.47342903 
   29570    1.4258606    2.6766126      2.05863   0.47285159 
   29580    1.4716017    2.6894414    2.1213624   0.47227192 
   29590    1.5100735    2.6922482    2.1953779   0.47168262 
   29600    1.5407372    2.6821737    2.2855728   0.47107497 
   29610    1.5648325    2.6620545     2.379686   0.47043851 
   29620    1.5828569    2.6763034    2.3571948   0.46976372 
   29630    1.5965004     2.737239    2.1878327   0.46905405 
   29640    1.6019704    2.7924876    2.0110386   0.46832838 
   29650    1.5993743    2.8166011    1.9023588   0.46760709 
   29660    1.5872019    2.8032875    1.8806184   0.46690278 
   29670    1.5648439     2.749348    1.9509045   0.46621774 
   29680    1.5322853    2.6776407    2.0467892   0.46554399 
   29690     1.492953    2.6483619    2.0106152   0.46487175 
   29700    1.4451541     2.670006    1.8194131   0.46420554 
   29710    1.3883694    2.6809025    1.6365123    0.4635661 
   29720    1.3197275    2.6535487    1.5361273   0.46297402 
   29730    1.2428417    2.6198965    1.4429988    0.4624415 
   29740    1.1557007     2.593243    1.3217039   0.46197929 
   29750      1.06315    2.5560319    1.2249181    0.4616004 
   29760   0.96772934    2.4974797    1.1907668   0.46131505 
   29770   0.87857173    2.4142663    1.2442597   0.46112611 
   29780    0.8001623    2.3142216    1.3731181   0.46102655 
   29790   0.74009605    2.2252218    1.5100912     0.461001 
   29800   0.69742599    2.1818046     1.559377   0.46103368 
   29810   0.66892891    2.1826678    1.5156059   0.46111841 
   29820    0.6545002    2.1999248     1.448472   0.46125923 
   29830   0.64995038     2.222496    1.3844664   0.46146348 
   29840   0.65319707    2.2470581    1.3320109   0.46173831 
   29850    0.6631971    2.2610068    1.3224528   0.46208917 
   29860   0.67870799    2.2564159    1.3722614   0.46251658 
   29870   0.69677171    2.2553807    1.4179673    0.4630149 
   29880    0.7223488     2.289305    1.3817092   0.46357923 
   29890   0.74934498    2.3429408    1.2980056    0.4642132 
   29900   0.77714047    2.3910919    1.2366337   0.46492576 
   29910   0.80825635    2.4169308    1.2496655   0.46572335 
   29920   0.83966114    2.4024019    1.3826573   0.46660359 
   29930   0.87321905    2.3602581    1.6004168    0.4675507 
   29940   0.91005159    2.3392653    1.7703745    0.4685399 
   29950    0.9490606    2.3740401    1.7968411   0.46955183 
   29960     0.991933    2.4368666    1.7536929   0.47058232 
   29970    1.0359029    2.4874422    1.7486032   0.47163528 
   29980     1.079787     2.504894    1.8386397   0.47271053 
   29990    1.1235469    2.4948977    2.0059293   0.47379723 
   30000    1.1664837    2.5023335    2.1252598    0.4748767 
Loop time of 5.63342 on 8 procs for 30000 steps with 125 atoms

Performance: 460111.187 tau/day, 5325.361 timesteps/s
110.1% CPU use with 1 MPI tasks x 8 OpenMP threads

MPI task timing breakdown:
Section |  min time  |  avg time  |  max time  |%varavg| %total
---------------------------------------------------------------
Pair    | 2.1164     | 2.1164     | 2.1164     |   0.0 | 37.57
Neigh   | 0.0099666  | 0.0099666  | 0.0099666  |   0.0 |  0.18
Comm    | 0.10168    | 0.10168    | 0.10168    |   0.0 |  1.80
Output  | 0.079666   | 0.079666   | 0.079666   |   0.0 |  1.41
Modify  | 3.3107     | 3.3107     | 3.3107     |   0.0 | 58.77
Other   |            | 0.01496    |            |       |  0.27

Nlocal:        125.000 ave         125 max         125 min
Histogram: 1 0 0 0 0 0 0 0 0 0
Nghost:        1571.00 ave        1571 max        1571 min
Histogram: 1 0 0 0 0 0 0 0 0 0
Neighs:        11223.0 ave       11223 max       11223 min
Histogram: 1 0 0 0 0 0 0 0 0 0

Total # of neighbors = 11223
Ave neighs/atom = 89.784000
Neighbor list builds = 155
Dangerous builds = 0

variable avedens equal f_aves[1]
variable avetemp equal f_aves[2]
variable avepress equal f_aves[3]
variable errdens equal sqrt(f_aves[4]-f_aves[1]*f_aves[1])
variable errtemp equal sqrt(f_aves[5]-f_aves[2]*f_aves[2])
variable errpress equal sqrt(f_aves[6]-f_aves[3]*f_aves[3])

print "Averages"
Averages
print "--------"
--------
print "Density: ${avedens}"
Density: 0.50187655491449
print "Stderr: ${errdens}"
Stderr: 0.0236019007149244
print "Temperature: ${avetemp}"
Temperature: 2.49826964963165
print "Stderr: ${errtemp}"
Stderr: 0.177343413551457
print "Pressure: ${avepress}"
Pressure: 1.99817020141906
print "Stderr: ${errpress}"
Stderr: 0.444809509839132
clear # Clear any previous runs
  using 8 OpenMP thread(s) per MPI task

package omp 8 # For parallelisation.
using multi-threaded neighbor list subroutines


### DEFINE SIMULATION BOX GEOMETRY ###
lattice sc 0.8
Lattice spacing in x,y,z = 1.0772173 1.0772173 1.0772173
region box block 0 5 0 5 0 5
create_box 1 box
Created orthogonal box = (0.0000000 0.0000000 0.0000000) to (5.3860867 5.3860867 5.3860867)
  1 by 1 by 1 MPI processor grid
create_atoms 1 box
Created 125 atoms
  create_atoms CPU = 0.000 seconds

### DEFINE PHYSICAL PROPERTIES OF ATOMS ###
mass 1 1.0
pair_style lj/cut/omp 2.5
pair_coeff 1 1 1.0 1.0
neighbor 2.0 bin

### SPECIFY THE REQUIRED THERMODYNAMIC STATE ###
variable T equal 2.5
variable p equal 3
variable timestep equal 0.001

log ${T}_${p}_NpT.log # specify the log file name. Can overwrite if desired
log 2.5_${p}_NpT.log 
log 2.5_3_NpT.log 
