
### SPECIFY THE NUMBER OF PRODUCTION STEPS ###
variable Nprod equal 30000

### ASSIGN ATOMIC VELOCITIES ###
velocity all create ${T} 12345 dist gaussian rot yes mom yes
velocity all create 2.5 12345 dist gaussian rot yes mom yes

### SPECIFY ENSEMBLE ###
timestep ${timestep}
timestep 0.001
fix nve all nve

### THERMODYNAMIC OUTPUT CONTROL ###
thermo_style custom time etotal temp press
thermo 10

### RECORD TRAJECTORY ###
dump traj all custom 1000 traj.dump id x y z

### SPECIFY TIMESTEP ###

### RUN SIMULATION TO MELT CRYSTAL ###
run 10000
Last active /omp style is pair_style lj/cut/omp
Neighbor list info ...
  update every 1 steps, delay 10 steps, check yes
  max neighbors/atom: 2000, page size: 100000
  master list distance cutoff = 4.5
  ghost atom cutoff = 4.5
  binsize = 2.25, bins = 3 3 3
  1 neighbor lists, perpetual/occasional/extra = 1 0 0
  (1) pair lj/cut/omp, perpetual
      attributes: half, newton on, omp
      pair build: half/bin/atomonly/newton/omp
      stencil: half/bin/3d/newton
      bin: standard
Per MPI rank memory allocation (min/avg/max) = 10.63 | 10.63 | 10.63 Mbytes
Time TotEng Temp Press 
           0   -1.5447711          2.5    1.6887632 
        0.01   -1.5447903    2.4412114    2.0151848 
        0.02   -1.5409015     2.255177     3.031597 
        0.03    -1.528985    1.9388678    4.7164208 
        0.04    -1.522145    1.5689045    6.6397518 
        0.05   -1.5219219    1.3307084    7.9105159 
        0.06   -1.5200744    1.3137688    8.1085657 
        0.07   -1.5197848    1.4184415    7.6742142 
        0.08   -1.5190286    1.5308711    7.1514104 
        0.09    -1.517437    1.6124811    6.7485995 
         0.1    -1.516378    1.6767616    6.4251348 
        0.11   -1.5157236    1.7374638    6.1256937 
        0.12   -1.5153276    1.8016262     5.817051 
        0.13   -1.5149455    1.8697442    5.4931898 
        0.14    -1.511686    1.9349772    5.1847546 
        0.15   -1.5099769    1.9937609    4.8963062 
        0.16    -1.509581    2.0558756    4.5838635 
        0.17   -1.5096122    2.1227912    4.2468141 
        0.18   -1.5106802    2.1666981    4.0149016 
        0.19   -1.5104054    2.1683128    3.9844295 
         0.2   -1.5109088     2.143079    4.0871364 
        0.21   -1.5105204    2.1099952    4.2409404 
        0.22   -1.5118293    2.0723371    4.4251038 
        0.23   -1.5113229    2.0294598    4.6476776 
        0.24   -1.5119475    1.9803696    4.9041556 
        0.25   -1.5109215    1.9462247    5.0982649 
        0.26   -1.5106343     1.922189    5.2332208 
        0.27   -1.5104682    1.9314522     5.200617 
        0.28   -1.5106683     1.991841      4.92883 
        0.29   -1.5110966     2.040083    4.7115829 
         0.3   -1.5144784    2.0333389    4.7479147 
        0.31   -1.5150763    1.9863378    4.9840422 
        0.32   -1.5131017    1.9570505    5.1603799 
        0.33   -1.5130599    1.9592956    5.2087987 
        0.34    -1.511607    1.9287124    5.4125196 
        0.35   -1.5092899    1.8853549    5.6674689 
        0.36   -1.5094387    1.9148134     5.575151 
        0.37   -1.5088827    1.9990577    5.2202056 
        0.38   -1.5094067    2.0468558    5.0211375 
        0.39   -1.5100124     2.040892    5.0751845 
         0.4   -1.5089763    2.0144816    5.2417996 
        0.41   -1.5101722     1.967085    5.5070907 
        0.42   -1.5093266    1.8969388    5.8689672 
        0.43     -1.51034    1.8654546    6.0373771 
        0.44   -1.5132886    1.8986038    5.8947735 
        0.45   -1.5132956    1.9321892    5.7370756 
        0.46    -1.513916     1.948429    5.6468818 
        0.47   -1.5134154    1.9685896    5.5377747 
        0.48   -1.5146112    1.9755479    5.4800303 
        0.49   -1.5153557    1.9538884    5.5452291 
         0.5   -1.5144178    1.9408643    5.5729846 
        0.51   -1.5145806    1.9612944    5.4510652 
        0.52   -1.5139625    1.9895464    5.2989045 
        0.53   -1.5155205    1.9934161    5.2603363 
        0.54   -1.5154994    1.9755639    5.3361412 
        0.55    -1.514479     1.949894    5.4666049 
        0.56   -1.5155075    1.9007547    5.7095532 
        0.57   -1.5164972    1.8453413    5.9807786 
        0.58   -1.5170184    1.8319067    6.0571302 
        0.59   -1.5163901    1.8637261    5.9188253 
         0.6   -1.5149655    1.9180206    5.6692633 
        0.61   -1.5155269    1.9726441    5.4117189 
        0.62   -1.5148584    1.9913473    5.3169834 
        0.63   -1.5158814    1.9827925    5.3440343 
        0.64   -1.5147089    1.9700699    5.3950489 
        0.65   -1.5134218    1.9582153    5.4451331 
        0.66   -1.5129055    1.9350519    5.5486841 
        0.67   -1.5127364    1.8984303    5.7134698 
        0.68   -1.5113004    1.8778894    5.8067845 
        0.69   -1.5092302    1.8767066    5.8093514 
         0.7   -1.5080705    1.8724306    5.8213008 
        0.71   -1.5080667    1.8509133    5.9104254 
        0.72   -1.5079112    1.8213262    6.0371682 
        0.73    -1.510792    1.8102535    6.0719747 
        0.74   -1.5091067    1.8183139     6.017648 
        0.75   -1.5092358    1.8353518    5.9105891 
        0.76   -1.5096245    1.8628416    5.7569864 
        0.77   -1.5102866    1.8941155    5.5943249 
        0.78   -1.5107833    1.9174007    5.4756842 
        0.79   -1.5121009    1.9424091    5.3563983 
         0.8   -1.5126284      1.95747    5.2876788 
        0.81   -1.5113233    1.9529129    5.3119381 
        0.82   -1.5113012    1.9264395    5.4297298 
        0.83   -1.5107429    1.9029249    5.5285428 
        0.84   -1.5110389    1.9166468    5.4555493 
        0.85    -1.512141    1.9405904    5.3353604 
        0.86   -1.5114829    1.9252754    5.3953928 
        0.87    -1.512195    1.8800663    5.5874104 
        0.88   -1.5125869    1.8664323    5.6380929 
        0.89   -1.5116972    1.8913968    5.5136591 
         0.9   -1.5106522    1.9284811    5.3325382 
        0.91   -1.5108077    1.9701253    5.1362952 
        0.92   -1.5109698    1.9926391    5.0377286 
        0.93    -1.510917    1.9768996    5.1168296 
        0.94   -1.5107458    1.9774443    5.1248028 
        0.95    -1.513026    2.0266907    4.9118536 
        0.96   -1.5146006    2.0713833    4.7212091 
        0.97   -1.5140935     2.084845    4.6816392 
        0.98   -1.5117329    2.0499408    4.8688767 
        0.99   -1.5099768    1.9826751    5.2011992 
           1   -1.5110006    1.9420038     5.407981 
        1.01   -1.5107815    1.9487969    5.3996297 
        1.02   -1.5117065      1.96391    5.3437191 
        1.03   -1.5111578    1.9684832    5.3317784 
        1.04   -1.5111677     1.978652    5.2970054 
        1.05   -1.5106689    1.9849966    5.2873829 
        1.06   -1.5112906    1.9692457    5.3798513 
        1.07   -1.5094453    1.9541017    5.4752044 
        1.08   -1.5086965    1.9554307    5.4914732 
        1.09   -1.5076543    1.9533374    5.5135961 
         1.1    -1.507371     1.951183    5.5248103 
        1.11   -1.5077798    1.9670709    5.4496449 
        1.12   -1.5079205    1.9879527    5.3523449 
        1.13   -1.5093504    2.0019841    5.2859952 
        1.14    -1.509622    2.0092988    5.2530685 
        1.15   -1.5092319    2.0014609    5.2855267 
        1.16   -1.5084245    1.9799411    5.3716469 
        1.17    -1.508533    1.9690111    5.3995628 
        1.18   -1.5085454    1.9893311    5.2843214 
        1.19   -1.5089822    2.0252187    5.1077906 
         1.2    -1.509516    2.0336153    5.0749895 
        1.21   -1.5090922    1.9995597    5.2575175 
        1.22   -1.5090632    1.9533893    5.5076207 
        1.23   -1.5094459    1.9296362    5.6522518 
        1.24   -1.5094554    1.9402975    5.6248031 
        1.25   -1.5094766    1.9737256    5.4757189 
        1.26   -1.5076646    2.0054908    5.3280778 
        1.27   -1.5085812    2.0191721    5.2632734 
        1.28   -1.5096258    2.0071479    5.3293867 
        1.29   -1.5113135    1.9698658    5.5225922 
         1.3   -1.5126151    1.9193175    5.7807411 
        1.31   -1.5140411    1.8689872    6.0278545 
        1.32   -1.5127256    1.8396554    6.1656611 
        1.33    -1.511571    1.8451723    6.1288866 
        1.34   -1.5096322    1.8725777    5.9855401 
        1.35   -1.5096372     1.905092    5.8155381 
        1.36   -1.5088454    1.9373334    5.6532191 
        1.37   -1.5080779    1.9719878    5.4926113 
        1.38   -1.5074643    1.9865714    5.4411869 
        1.39   -1.5076867    1.9493094     5.638171 
         1.4   -1.5089783    1.8883421    5.9504405 
        1.41   -1.5080535    1.8265279    6.2673489 
        1.42   -1.5079023    1.7803735    6.5006204 
        1.43   -1.5070054    1.7686431    6.5659152 
        1.44   -1.5071453    1.7800576    6.5094436 
        1.45   -1.5076847    1.8012783    6.3963247 
        1.46   -1.5079513    1.8133691    6.3167597 
        1.47   -1.5093583     1.815241    6.2756373 
        1.48   -1.5097603    1.8291158    6.1800393 
        1.49   -1.5100191    1.8479512    6.0597942 
         1.5   -1.5101168    1.8731182    5.9105568 
        1.51   -1.5096048    1.9268892    5.6394313 
        1.52   -1.5095102    1.9928439    5.3246687 
        1.53   -1.5113433    2.0335651     5.137541 
        1.54   -1.5101658    2.0375369     5.140772 
        1.55   -1.5092574    2.0069267     5.314759 
        1.56   -1.5092545    1.9458762    5.6272272 
        1.57   -1.5098764    1.8745543    5.9728667 
        1.58   -1.5104965    1.8366355    6.1471383 
        1.59   -1.5109326    1.8640843    6.0095256 
         1.6    -1.511529    1.9125401     5.767113 
        1.61   -1.5105776    1.9169921     5.721244 
        1.62   -1.5107754    1.9118667    5.7226687 
        1.63   -1.5092475    1.9492034    5.5484633 
        1.64   -1.5088962    1.9949283    5.3470463 
        1.65   -1.5078573    2.0037573    5.3289211 
        1.66   -1.5060296      1.96393    5.5506446 
        1.67   -1.5061351    1.8792787     5.982674 
        1.68   -1.5060704    1.7851504    6.4524799 
        1.69   -1.5051418    1.7494463    6.6431333 
         1.7   -1.5037709    1.7927577    6.4613033 
        1.71   -1.5034646    1.8495125    6.2109916 
        1.72   -1.5051454    1.8372502    6.2702638 
        1.73   -1.5052805    1.7777931     6.545713 
        1.74   -1.5063443    1.7786816    6.5480801 
        1.75   -1.5073179    1.8325817    6.3009901 
        1.76   -1.5079562    1.8819022    6.0612109 
        1.77   -1.5088771    1.9229979    5.8569859 
        1.78   -1.5095297    1.9459059    5.7429781 
        1.79   -1.5095239    1.9444612    5.7518277 
         1.8   -1.5118639    1.9232164    5.8563918 
        1.81   -1.5096459    1.8914126    6.0198068 
        1.82   -1.5104026    1.8557746    6.1877546 
        1.83   -1.5098485    1.8446342    6.2294036 
        1.84   -1.5084315    1.8860418    6.0157668 
        1.85   -1.5093748    1.9576231    5.6468212 
        1.86   -1.5089784    2.0215238    5.3089772 
        1.87   -1.5093671    2.0710034    5.0430101 
        1.88   -1.5104313    2.1018559     4.876814 
        1.89   -1.5105605    2.0988386    4.8839111 
         1.9   -1.5092352    2.0661702    5.0445019 
        1.91   -1.5080619     2.025187    5.2565371 
        1.92   -1.5075431    1.9790647    5.4974808 
        1.93   -1.5080299    1.9319538    5.7387716 
        1.94   -1.5097193    1.9136523    5.8405211 
        1.95   -1.5097713    1.9300292    5.7818233 
        1.96   -1.5096677    1.9389971    5.7546769 
        1.97   -1.5088577    1.9200604     5.859095 
        1.98   -1.5091049    1.8972288    5.9870156 
        1.99   -1.5096424    1.8889286    6.0539476 
           2   -1.5109867    1.8786131    6.1305362 
        2.01   -1.5108452    1.8334014    6.3633038 
        2.02   -1.5102541    1.7695683     6.667532 
        2.03   -1.5111171     1.759275    6.7061796 
        2.04   -1.5098904    1.8447382    6.2962071 
        2.05   -1.5090408    1.9552134    5.7601852 
        2.06   -1.5095569    2.0170462    5.4441179 
        2.07    -1.508873    2.0233114     5.396268 
        2.08    -1.508594    1.9964375    5.5139686 
        2.09   -1.5077979    1.9565924    5.7004629 
         2.1   -1.5077955    1.9192672    5.8734749 
        2.11   -1.5092172    1.8958714    5.9692879 
        2.12   -1.5106572    1.9014669    5.9180625 
        2.13   -1.5109589    1.9309475    5.7512533 
        2.14   -1.5108531    1.9497189    5.6343958 
        2.15   -1.5102122    1.9309941    5.6956738 
        2.16   -1.5123993    1.8730001     5.933996 
        2.17   -1.5116982    1.8135293    6.1793942 
        2.18    -1.509866    1.8056189    6.1857472 
        2.19   -1.5090251    1.8536626    5.9316761 
         2.2   -1.5081128    1.8957754    5.6972652 
        2.21   -1.5084501    1.9302354    5.4990415 
        2.22   -1.5106068     1.987556    5.2162916 
        2.23   -1.5107334    2.0119193     5.106795 
        2.24   -1.5092538    1.9945978    5.2081524 
        2.25    -1.509245    1.9715369    5.3485532 
        2.26    -1.509651    1.9549041    5.4673974 
        2.27   -1.5079505    1.9359888    5.6018801 
        2.28   -1.5088548    1.9182882    5.7242952 
        2.29   -1.5096512    1.9102911    5.7953507 
         2.3    -1.509909    1.9081763    5.8259883 
        2.31   -1.5095119    1.9202763    5.7779169 
        2.32    -1.510081    1.9465208    5.6551207 
        2.33    -1.510195    1.9497601    5.6281956 
        2.34    -1.512226    1.9440269    5.6299751 
        2.35   -1.5121177    1.9743504    5.4647434 
        2.36   -1.5115138    2.0211649    5.2197358 
        2.37   -1.5109977    2.0365653    5.1173089 
        2.38   -1.5102995    2.0141735    5.1922513 
        2.39   -1.5105398    1.9985761     5.242795 
         2.4   -1.5100648    2.0075779    5.1888276 
        2.41   -1.5116233    2.0065415    5.1787114 
        2.42   -1.5118775    1.9935905    5.2300135 
        2.43   -1.5109704    1.9736323    5.3204408 
        2.44   -1.5099232     1.940835    5.4694794 
        2.45   -1.5103911    1.9103467    5.6009276 
        2.46   -1.5107867    1.9338858    5.4891893 
        2.47   -1.5089144    2.0037686    5.1816975 
        2.48   -1.5099725    2.0417115    5.0277662 
        2.49   -1.5116241    2.0236526    5.1417927 
         2.5   -1.5118513    1.9887929    5.3447603 
        2.51   -1.5114826    1.9704412    5.4746456 
        2.52    -1.510452     1.955694     5.580216 
        2.53   -1.5114882     1.934845    5.7003989 
        2.54   -1.5109705    1.9174412    5.8029956 
        2.55   -1.5104661    1.9031523    5.8888473 
        2.56    -1.511241    1.8817619    5.9970088 
        2.57   -1.5115838    1.8686584    6.0542633 
        2.58   -1.5107966    1.9100509    5.8545418 
        2.59   -1.5125857    1.9994763    5.4290448 
         2.6   -1.5119489     2.050914    5.1788636 
        2.61   -1.5115045    2.0379663    5.2255987 
        2.62   -1.5121364    2.0038282    5.3735726 
        2.63   -1.5125616     1.972752    5.5088373 
        2.64   -1.5130818    1.9257998    5.7080324 
        2.65   -1.5125258    1.8685404    5.9441768 
        2.66   -1.5126266    1.8361636    6.0530937 
        2.67   -1.5139375     1.858085    5.9025361 
        2.68   -1.5133507    1.9181619    5.5798673 
        2.69   -1.5133609    1.9532532    5.3772367 
         2.7   -1.5137186    1.9443609    5.3906079 
        2.71   -1.5134225    1.9204309    5.4874167 
        2.72    -1.512619    1.9139834    5.5054251 
        2.73   -1.5131232    1.9487193    5.3210424 
        2.74   -1.5130226    2.0329505    4.9004586 
        2.75   -1.5108649    2.1339831     4.409643 
        2.76   -1.5098774    2.1875681    4.1557066 
        2.77   -1.5099854     2.145203    4.3687827 
        2.78   -1.5096641    2.0417164    4.8902935 
        2.79   -1.5110897    1.9394601    5.4137894 
         2.8   -1.5112667    1.8759584    5.7445767 
        2.81   -1.5100332    1.9128927    5.6005941 
        2.82   -1.5101157    1.9877267    5.2629757 
        2.83   -1.5095983    2.0111215    5.1515458 
        2.84   -1.5103392     1.970399    5.3317273 
        2.85   -1.5091227     1.907507    5.6147522 
        2.86   -1.5083391    1.8671846    5.7837401 
        2.87   -1.5086035    1.8585351    5.7897986 
        2.88   -1.5074522    1.8744081    5.6721497 
        2.89   -1.5076872    1.8992434    5.5012162 
         2.9   -1.5082175    1.9476824     5.224821 
        2.91   -1.5075951    2.0087385    4.9063469 
        2.92   -1.5083973    2.0448872    4.7219988 
        2.93   -1.5069618    2.0332527    4.7880749 
        2.94   -1.5069382    1.9752912    5.0870411 
        2.95   -1.5089708    1.9019078    5.4623941 
        2.96   -1.5097151    1.8743063    5.6280889 
        2.97   -1.5074112     1.931096    5.4075723 
        2.98   -1.5088175    2.0250492    5.0081964 
        2.99    -1.508552    2.0652728    4.8542353 
           3   -1.5071764    2.0567928    4.9289795 
        3.01   -1.5063131    2.0531672    4.9923336 
        3.02   -1.5062781    2.0237025    5.1723506 
        3.03   -1.5054611    1.9906828    5.3721946 
        3.04    -1.504311    1.9827121    5.4599974 
        3.05   -1.5052358    1.9804113    5.5114845 
        3.06   -1.5066794    1.9665537    5.6048296 
        3.07   -1.5070592    1.9323319    5.7801005 
        3.08   -1.5079363    1.8920159    5.9657336 
        3.09   -1.5072574    1.8849429     5.983549 
         3.1   -1.5063904     1.932172    5.7410863 
        3.11   -1.5063155    1.9875167    5.4571448 
        3.12   -1.5064395    1.9929595    5.4085852 
        3.13   -1.5059865    1.9514643    5.5917615 
        3.14   -1.5059513    1.9165172    5.7634795 
        3.15   -1.5057229    1.9201473    5.7740357 
        3.16    -1.507328    1.9344983    5.7384368 
        3.17   -1.5071995    1.9217389    5.8279516 
        3.18   -1.5088541     1.882594     6.025769 
        3.19   -1.5088261    1.8671698    6.1028838 
         3.2   -1.5068106    1.9018143    5.9365187 
        3.21   -1.5073045      1.93606    5.7430939 
        3.22   -1.5070214    1.9872418    5.4662463 
        3.23   -1.5072288    2.0586861    5.1073961 
        3.24   -1.5056526    2.0796334    4.9933768 
        3.25    -1.505325    2.0490737    5.1251418 
        3.26   -1.5060747    2.0247081    5.2380599 
        3.27   -1.5061199    2.0372765    5.1913233 
        3.28   -1.5068033    2.0496339    5.1464111 
        3.29   -1.5079515    2.0316179    5.2388982 
         3.3   -1.5075239    2.0073463    5.3636095 
        3.31   -1.5079385    2.0019875    5.4024264 
        3.32   -1.5074439     1.997219    5.4395539 
        3.33   -1.5076948     1.972663    5.5661629 
        3.34   -1.5101584    1.9422557    5.7208953 
        3.35   -1.5112218    1.9188418    5.8497184 
        3.36    -1.510825    1.8900722    5.9983126 
        3.37   -1.5097612    1.8618603    6.1313461 
        3.38   -1.5088337    1.8540719    6.1554332 
        3.39   -1.5091094     1.880231    6.0116031 
         3.4    -1.508502    1.9261664    5.7761474 
        3.41   -1.5100795    1.9528442    5.6278781 
        3.42   -1.5109687     1.950105    5.6219034 
        3.43   -1.5114787    1.9421375    5.6472968 
        3.44    -1.511083    1.9457926    5.6214699 
        3.45   -1.5102139    1.9595965       5.5474 
        3.46   -1.5084085    1.9484145    5.5814785 
        3.47   -1.5080486    1.9068697    5.7389513 
        3.48   -1.5066172     1.921665    5.6408231 
        3.49   -1.5058147    1.9858855    5.3218453 
         3.5   -1.5068495    1.9999492    5.2331654 
        3.51   -1.5069116    1.9676027    5.3774433 
        3.52   -1.5061597    1.9460948    5.5042287 
        3.53   -1.5057629    1.9241296    5.6470523 
        3.54   -1.5048123    1.9047044    5.7786789 
        3.55   -1.5052241    1.9161782    5.7616236 
        3.56   -1.5073349    1.9420837    5.6662004 
        3.57   -1.5065525    1.9569291    5.6189573 
        3.58    -1.505653    1.9527452    5.6581547 
        3.59   -1.5068139    1.9224408    5.8102922 
         3.6   -1.5063761    1.8867102    5.9812688 
        3.61   -1.5054668    1.8921858    5.9590137 
        3.62   -1.5057907    1.9337376    5.7713726 
        3.63   -1.5064338    1.9576292    5.6709932 
        3.64   -1.5066764    1.9604067     5.686329 
        3.65   -1.5064328    1.9554729    5.7598673 
        3.66   -1.5074905    1.9302334    5.9357252 
        3.67   -1.5071978    1.8797976    6.2210713 
        3.68   -1.5069044    1.8348155     6.455575 
        3.69   -1.5082028    1.8288333    6.4751901 
         3.7   -1.5081655    1.8535465    6.3262996 
        3.71   -1.5093041     1.837228    6.3293206 
        3.72    -1.510376    1.8084376    6.3652912 
        3.73   -1.5111595    1.8555417    6.0465674 
        3.74    -1.510595    1.9702911     5.421471 
        3.75    -1.509063    2.0622995    4.9107051 
        3.76   -1.5083841     2.082856    4.7483751 
        3.77   -1.5086078    2.0499384     4.860623 
        3.78   -1.5104095     2.000824    5.0700886 
        3.79   -1.5102729    1.9651498    5.2338506 
         3.8   -1.5119756    1.9580887    5.2657332 
        3.81   -1.5120121    1.9776615    5.1773762 
        3.82    -1.512424    1.9940599    5.1009174 
        3.83   -1.5121323    1.9912572    5.1151155 
        3.84   -1.5118656    1.9934211     5.119662 
        3.85   -1.5115116    2.0035516    5.1063764 
        3.86   -1.5100585     1.991773    5.2066745 
        3.87   -1.5099074    1.9650703    5.3788921 
        3.88   -1.5078343    1.9425486    5.5323461 
        3.89   -1.5079541    1.9228158    5.6552967 
         3.9   -1.5075359    1.9244161    5.6661933 
        3.91   -1.5070794    1.9661865    5.4905849 
        3.92   -1.5081419     1.991889    5.3876015 
        3.93   -1.5081078    1.9738892    5.4954595 
        3.94   -1.5074212    1.9381186    5.6987674 
        3.95   -1.5070391    1.9142878    5.8561276 
        3.96    -1.506804    1.8953373    5.9891015 
        3.97   -1.5069146    1.8616443    6.1746284 
        3.98   -1.5074175    1.8307027    6.3292978 
        3.99   -1.5066491    1.8172568    6.3882855 
           4   -1.5075427    1.8160416    6.3710521 
        4.01   -1.5100359    1.8393478    6.2295843 
        4.02   -1.5115079    1.8715711    6.0440393 
        4.03   -1.5116373    1.8799209    5.9657656 
        4.04    -1.511463    1.8692163    5.9738558 
        4.05   -1.5106768    1.8787571    5.8954735 
        4.06   -1.5112558     1.907425     5.734337 
        4.07   -1.5103242    1.9121992    5.6855395 
        4.08   -1.5102988    1.9041147    5.6972627 
        4.09   -1.5086212    1.9072669    5.6674748 
         4.1    -1.509162    1.9086084    5.6486053 
        4.11   -1.5099146    1.8949017    5.7017946 
        4.12   -1.5096391    1.8888489     5.727128 
        4.13   -1.5094072    1.8994946    5.6822766 
        4.14   -1.5090158    1.9041598    5.6688608 
        4.15   -1.5100468    1.9011854    5.6940628 
        4.16   -1.5094064    1.8987428    5.7270677 
        4.17   -1.5082202    1.8899388    5.7937274 
        4.18   -1.5099132      1.88439    5.8438149 
        4.19   -1.5088855    1.8855463    5.8671587 
         4.2   -1.5091245    1.8887606    5.8714114 
        4.21   -1.5083407    1.9132691    5.7715615 
        4.22   -1.5083548    1.9602342     5.559334 
        4.23   -1.5085126     2.006652    5.3440277 
        4.24    -1.507718    2.0223057    5.2690913 
        4.25   -1.5084852    2.0113425     5.319999 
        4.26   -1.5087541    1.9859172    5.4503808 
        4.27   -1.5098049    1.9386143    5.6859386 
        4.28   -1.5100084    1.8722015     6.000807 
        4.29   -1.5093144    1.8421416    6.1320317 
         4.3     -1.50923     1.885846    5.9047949 
        4.31   -1.5086133     1.958324    5.5280868 
        4.32   -1.5095349     2.011221     5.232624 
        4.33   -1.5096565    2.0294441     5.106313 
        4.34   -1.5096351    2.0209386    5.1185998 
        4.35   -1.5081903    2.0070156    5.1735512 
        4.36   -1.5083285    1.9979229    5.2136875 
        4.37   -1.5079483    1.9873704    5.2648917 
        4.38   -1.5082226    1.9667509    5.3629595 
        4.39   -1.5084735    1.9304189    5.5349353 
         4.4   -1.5083095    1.8983295    5.6930119 
        4.41   -1.5078223    1.9016785    5.6979976 
        4.42   -1.5086344     1.916833    5.6449787 
        4.43   -1.5078411    1.9140452    5.6612908 
        4.44   -1.5060831    1.9049884    5.6867815 
        4.45   -1.5067388    1.9378651    5.5064912 
        4.46   -1.5067928    2.0040829    5.1770206 
        4.47    -1.506801    2.0452505    4.9733581 
        4.48   -1.5055982    2.0420272    4.9955089 
        4.49   -1.5071518    2.0166229    5.1379044 
         4.5   -1.5071597    1.9847852    5.3263246 
        4.51   -1.5068902    1.9454773    5.5501056 
        4.52   -1.5071459    1.9065936    5.7636704 
        4.53   -1.5064921    1.8740669    5.9343554 
        4.54   -1.5085762    1.8541504    6.0208901 
        4.55    -1.510803    1.8527727     5.996852 
        4.56   -1.5093663     1.867371    5.8804194 
        4.57   -1.5100058     1.904175      5.64271 
        4.58   -1.5124997    1.9761806    5.2413725 
        4.59   -1.5100743    2.0659616    4.7845827 
         4.6   -1.5120608    2.1192012    4.5161632 
        4.61   -1.5133559    2.1017536    4.6029412 
        4.62   -1.5115988    2.0285717    4.9732552 
        4.63   -1.5115655    1.9586645    5.3391202 
        4.64   -1.5111861    1.9267975    5.5304864 
        4.65   -1.5096488    1.9239765    5.5794705 
        4.66   -1.5088877     1.923197    5.6038248 
        4.67   -1.5096364    1.9111252    5.6628832 
        4.68   -1.5100114    1.9192967    5.6198827 
        4.69   -1.5092536    1.9610232    5.4181944 
         4.7    -1.507705    2.0075849    5.1932294 
        4.71   -1.5094182    2.0349938    5.0598873 
        4.72   -1.5082632    2.0227999    5.1280463 
        4.73    -1.508885    1.9580294    5.4434151 
        4.74   -1.5080463    1.8807877    5.8201721 
        4.75   -1.5101488     1.849552    5.9791677 
        4.76    -1.510314    1.8632599    5.9280965 
        4.77    -1.512183    1.8866372    5.8270814 
        4.78   -1.5128323    1.8820319    5.8560697 
        4.79   -1.5121361     1.852577     5.998675 
         4.8   -1.5126496     1.837765    6.0680512 
        4.81   -1.5124057    1.8493207    6.0101717 
        4.82   -1.5116289      1.87405    5.8874184 
        4.83    -1.510629    1.8989401     5.768319 
        4.84   -1.5104786    1.8887752    5.8101372 
        4.85   -1.5088518    1.8677484    5.9068185 
        4.86    -1.508912     1.879919    5.8574578 
        4.87   -1.5085412    1.8811109    5.8585967 
        4.88   -1.5088814    1.8513293    5.9942165 
        4.89    -1.508605    1.8320588    6.0776858 
         4.9   -1.5092638    1.8390882    6.0299493 
        4.91   -1.5088732    1.8628123    5.8951749 
        4.92   -1.5079709    1.8969468    5.7061101 
        4.93   -1.5077082    1.9300269    5.5197275 
        4.94   -1.5074534    1.9614368    5.3493361 
        4.95   -1.5060396    1.9839765    5.2387074 
        4.96   -1.5055338    1.9759738    5.2889726 
        4.97   -1.5047233    1.9253618     5.555973 
        4.98   -1.5049371    1.8596524    5.9069802 
        4.99   -1.5041717    1.8234178    6.1348883 
           5   -1.5042038    1.8073083    6.2633641 
        5.01   -1.5049573     1.790016     6.375914 
        5.02   -1.5061122    1.7934658    6.3733036 
        5.03   -1.5050964    1.8334896     6.193982 
        5.04   -1.5044638    1.8846536    5.9559812 
        5.05   -1.5034256    1.9225055    5.7811825 
        5.06   -1.5032965     1.938037     5.717203 
        5.07    -1.503944    1.9278692    5.7852274 
        5.08   -1.5051256    1.8923685    5.9857036 
        5.09   -1.5056428    1.8292871    6.3242963 
         5.1   -1.5044185    1.7512683    6.7311162 
        5.11   -1.5055581    1.7125913     6.942771 
        5.12   -1.5056265    1.7428156    6.8252279 
        5.13    -1.506151    1.7881328    6.6105138 
        5.14   -1.5072989    1.8350836    6.3637604 
        5.15   -1.5062841     1.898744    6.0335804 
        5.16   -1.5067094     1.946055    5.7715924 
        5.17   -1.5073379    1.9413351    5.7455194 
        5.18   -1.5071447    1.9053604    5.8650238 
        5.19   -1.5084546    1.8954524    5.8707087 
         5.2   -1.5094306    1.9091514    5.7762632 
        5.21   -1.5110016     1.895046    5.8086657 
        5.22   -1.5109637    1.8467713    5.9979349 
        5.23   -1.5112031    1.8081762    6.1418612 
        5.24   -1.5108471    1.8055913    6.1225935 
        5.25   -1.5113569    1.8184711      6.02875 
        5.26   -1.5104668    1.8477241    5.8662235 
        5.27   -1.5106237    1.8689605    5.7429271 
        5.28   -1.5107125    1.8569501    5.7738319 
        5.29   -1.5088385     1.843929    5.8204479 
         5.3   -1.5099023    1.8719563    5.6920808 
        5.31    -1.509717    1.9198621    5.4965392 
        5.32   -1.5119509    1.9230916    5.5185124 
        5.33   -1.5125347    1.8754007    5.7851852 
        5.34   -1.5108224    1.8368747    6.0125127 
        5.35   -1.5084963    1.8294026    6.0800432 
        5.36    -1.509008    1.8347979    6.0556422 
        5.37   -1.5091283    1.8554834    5.9409915 
        5.38    -1.511245    1.8943845    5.7323421 
        5.39   -1.5108333    1.9311774    5.5374074 
         5.4   -1.5099219    1.9745933     5.325825 
        5.41   -1.5078587    2.0186759    5.1341646 
        5.42    -1.509046    2.0358248    5.0845093 
        5.43   -1.5093059    2.0109816    5.2522997 
        5.44   -1.5087616    1.9468189    5.6160288 
        5.45    -1.510677    1.8729368     6.018227 
        5.46   -1.5096099    1.8364422    6.2354297 
        5.47   -1.5095156    1.8579157    6.1581701 
        5.48   -1.5088925    1.9055964    5.9343091 
        5.49   -1.5101963     1.948263    5.7149428 
         5.5    -1.509169     1.978748    5.5560138 
        5.51   -1.5099481     1.983976     5.516208 
        5.52   -1.5078193    1.9732882    5.5599026 
        5.53   -1.5070426    1.9824027    5.5188004 
        5.54   -1.5070839    2.0077417    5.4090452 
        5.55   -1.5081356    2.0105673    5.4048369 
        5.56   -1.5099261    1.9792557    5.5593067 
        5.57   -1.5117144    1.9457466    5.7274756 
        5.58   -1.5112067    1.9437381    5.7576217 
        5.59   -1.5101871     1.963082    5.6880181 
         5.6   -1.5097955    1.9798643    5.6222651 
        5.61   -1.5091352    1.9919901    5.5737465 
        5.62   -1.5077079    2.0016922    5.5374364 
        5.63   -1.5082511    1.9986954    5.5565807 
        5.64   -1.5077334    1.9669307    5.7035727 
        5.65   -1.5069175    1.9096476    5.9533084 
        5.66   -1.5063436    1.8669318     6.117376 
        5.67   -1.5059557    1.8893763    5.9709409 
        5.68   -1.5051176    1.9688097    5.5651873 
        5.69   -1.5047656     2.032552     5.243347 
         5.7   -1.5059361    2.0331531    5.2335777 
        5.71   -1.5062992    1.9748935     5.521972 
        5.72    -1.507028    1.8961419    5.9197747 
        5.73    -1.507566    1.8493177     6.176633 
        5.74   -1.5062947    1.8296268    6.3022379 
        5.75   -1.5047016    1.8125731    6.3973732 
        5.76   -1.5052317    1.8169164    6.3774891 
        5.77    -1.506299    1.8356704    6.2762583 
        5.78   -1.5066504    1.8521297    6.1665908 
        5.79   -1.5064016    1.8914373    5.9384478 
         5.8   -1.5076013    1.9424254    5.6458552 
        5.81   -1.5053871    1.9803297     5.424966 
        5.82   -1.5052871    1.9906035    5.3526187 
        5.83    -1.504221    1.9482173    5.5516839 
        5.84   -1.5056087    1.8725014    5.9233447 
        5.85     -1.50663    1.8139898    6.2294406 
        5.86   -1.5052071    1.8029905    6.3199995 
        5.87   -1.5047048    1.8347067    6.2010114 
        5.88   -1.5060468    1.8869796    5.9735699 
        5.89   -1.5064442    1.9224971    5.8189687 
         5.9   -1.5056303     1.932377    5.7868143 
        5.91   -1.5065428    1.9371375    5.7831974 
        5.92   -1.5065446      1.93908    5.7972407 
        5.93   -1.5051059    1.9345785    5.8423307 
        5.94   -1.5039319    1.9256825    5.9048379 
        5.95   -1.5032846    1.9115068    5.9855213 
        5.96   -1.5035376    1.8897348    6.0886772 
        5.97   -1.5058587    1.8739769    6.1464027 
        5.98   -1.5074394    1.8883844    6.0548305 
        5.99   -1.5091676    1.9211475    5.8693152 
           6   -1.5095575    1.9390383     5.747282 
        6.01   -1.5105732    1.9387884    5.7058471 
        6.02    -1.509263    1.9431328    5.6496538 
        6.03    -1.509391    1.9619684    5.5250892 
        6.04   -1.5087459    1.9985232    5.3198506 
        6.05   -1.5078495    2.0427671    5.0805566 
        6.06   -1.5093002    2.0728395    4.9074319 
        6.07   -1.5089036    2.0705432    4.8952393 
        6.08    -1.507983    2.0353993    5.0466553 
        6.09   -1.5082297    1.9770925    5.3101879 
         6.1   -1.5076822    1.9137624    5.5953754 
        6.11   -1.5066055    1.8718173    5.7720221 
        6.12   -1.5068668    1.8815848    5.6982217 
        6.13   -1.5063771    1.9433253    5.3813888 
        6.14   -1.5074544    2.0222898    4.9870482 
        6.15    -1.507604    2.0747742    4.7330355 
        6.16   -1.5083841    2.0749093    4.7438879 
        6.17   -1.5091376     2.025603    5.0033033 
        6.18   -1.5071377    1.9579463    5.3567929 
        6.19   -1.5069891    1.9194745    5.5615932 
         6.2   -1.5070369    1.9290297    5.5241376 
        6.21   -1.5094143    1.9523945     5.395134 
        6.22   -1.5108145    1.9695186    5.2803539 
        6.23   -1.5096601    2.0055816     5.087777 
        6.24   -1.5085413    2.0384115    4.9272851 
        6.25   -1.5089187    2.0173378    5.0304908 
        6.26   -1.5075661    1.9574225    5.3334927 
        6.27   -1.5064903    1.9113529    5.5829071 
        6.28   -1.5074113    1.9141088    5.6062635 
        6.29   -1.5073532    1.9509098    5.4762248 
         6.3   -1.5092075    1.9556458    5.4882594 
        6.31   -1.5101839    1.9030642    5.7564426 
        6.32   -1.5104998    1.8615983    5.9674562 
        6.33   -1.5103317    1.8886955    5.8629006 
        6.34   -1.5108893    1.9117894    5.7639149 
        6.35   -1.5103097    1.8932444    5.8472412 
        6.36    -1.511082    1.8795604    5.9059716 
        6.37   -1.5093963    1.8907861    5.8522652 
        6.38   -1.5084839    1.9195014    5.7124786 
        6.39   -1.5073302    1.9531598    5.5507465 
         6.4   -1.5077241    1.9645921    5.4952028 
        6.41   -1.5067012    1.9406291    5.6201001 
        6.42    -1.508756     1.869652    5.9681115 
        6.43    -1.510011    1.7894341    6.3660106 
        6.44   -1.5096314    1.7511192    6.5722351 
        6.45   -1.5100307    1.7520888    6.5806897 
        6.46    -1.509506    1.7802348    6.4477745 
        6.47   -1.5080893     1.828962    6.2134937 
        6.48   -1.5082582    1.8736809    5.9962109 
        6.49    -1.507601    1.8788158    5.9642263 
         6.5   -1.5062355    1.8531075    6.0752046 
        6.51   -1.5053134    1.8465935    6.0962645 
        6.52   -1.5054722    1.8684531    5.9800811 
        6.53   -1.5049567    1.8910643    5.8573904 
        6.54   -1.5039214     1.897576    5.8136945 
        6.55   -1.5047198     1.873737    5.9136452 
        6.56   -1.5042958    1.8137567    6.1821807 
        6.57   -1.5035984    1.7579817    6.4282045 
        6.58   -1.5062415    1.7482937    6.4527874 
        6.59   -1.5071443    1.7649906    6.3492028 
         6.6   -1.5071572    1.8034246     6.147462 
        6.61   -1.5075671    1.8476372    5.9268127 
        6.62   -1.5078089    1.8792313    5.7738883 
        6.63   -1.5094971     1.912465    5.6241682 
        6.64   -1.5105833    1.9515248    5.4636506 
        6.65   -1.5110046    1.9572775    5.4678742 
        6.66   -1.5099211     1.904741    5.7458655 
        6.67   -1.5095981     1.834994    6.1001295 
        6.68   -1.5090624    1.8095685    6.2452288 
        6.69   -1.5102812    1.8407669    6.1183504 
         6.7   -1.5099281     1.886222    5.9194663 
        6.71   -1.5095277    1.9046457    5.8381729 
        6.72   -1.5087087    1.8999592    5.8586016 
        6.73    -1.509207    1.9068936    5.8193546 
        6.74   -1.5088624    1.9440976    5.6424149 
        6.75   -1.5090306    1.9708879    5.5121229 
        6.76   -1.5082202     1.957287    5.5692417 
        6.77   -1.5088623    1.9291099    5.6957022 
        6.78   -1.5094035    1.9067787    5.7997844 
        6.79   -1.5080383    1.8750943    5.9497885 
         6.8   -1.5083464    1.7982168    6.2870318 
        6.81   -1.5090517    1.7702549    6.3896215 
        6.82   -1.5090487    1.8464489    6.0184799 
        6.83   -1.5094349    1.9106051    5.6936191 
        6.84   -1.5103145    1.9363312    5.5490325 
        6.85   -1.5118661    1.9438225    5.4978097 
        6.86   -1.5114526     1.952227    5.4508121 
        6.87   -1.5113496    1.9771405    5.3291332 
        6.88   -1.5117379    1.9984353    5.2191717 
        6.89   -1.5115906    2.0161178    5.1270934 
         6.9   -1.5113989    2.0378886    5.0272706 
        6.91   -1.5114011    2.0143946    5.1407716 
        6.92   -1.5106724    1.9597001    5.4057545 
        6.93    -1.511099     1.934337    5.5454782 
        6.94    -1.510176    1.9139348    5.6590151 
        6.95   -1.5122365    1.8967991    5.7442886 
        6.96   -1.5132866    1.9014615    5.7312209 
        6.97   -1.5122748    1.9209641     5.663383 
        6.98   -1.5109758    1.9279791    5.6671976 
        6.99   -1.5116019    1.9230909     5.737305 
           7   -1.5095343    1.9283482    5.7820766 
        7.01   -1.5096842    1.9325846    5.8395304 
        7.02   -1.5103913    1.9103666     6.020776 
        7.03   -1.5106812    1.8331356    6.4364937 
        7.04   -1.5109058    1.7842608     6.700507 
        7.05   -1.5110563     1.802216    6.6266791 
        7.06   -1.5090859    1.8670486    6.3073349 
        7.07   -1.5087517      1.96562    5.8180199 
        7.08   -1.5082728    2.0396975    5.4467265 
        7.09   -1.5082714    2.0401431    5.4304933 
         7.1    -1.507692    1.9717519    5.7497476 
        7.11   -1.5073688    1.8987748    6.1013514 
        7.12   -1.5077908    1.8842986     6.184647 
        7.13   -1.5079801    1.9111436     6.064354 
        7.14   -1.5077106    1.9327541    5.9455097 
        7.15   -1.5079551    1.9478771     5.836761 
        7.16   -1.5086187    1.9649092    5.7063455 
        7.17   -1.5078454    1.9729852    5.6124429 
        7.18   -1.5092797    1.9632501    5.5951643 
        7.19   -1.5103004      1.94336    5.6258171 
         7.2   -1.5098351      1.93203    5.6239246 
        7.21   -1.5096677    1.8972408    5.7256906 
        7.22   -1.5110642    1.8722228     5.786777 
        7.23   -1.5111145    1.8890847    5.6772922 
        7.24   -1.5115216    1.8975938    5.6239616 
        7.25   -1.5091647    1.8703796    5.7591735 
        7.26   -1.5079436    1.8146868    6.0364743 
        7.27   -1.5095983    1.7781758     6.225647 
        7.28   -1.5117198    1.7989998    6.1505414 
        7.29   -1.5114933    1.8488563    5.9388099 
         7.3   -1.5126746     1.888116    5.7666076 
        7.31   -1.5134428    1.9027778     5.705349 
        7.32   -1.5132795    1.9050555    5.7019689 
        7.33   -1.5119752    1.9204156    5.6419259 
        7.34   -1.5116157    1.9460886    5.5336334 
        7.35   -1.5118902    1.9514676    5.5130871 
        7.36   -1.5115961    1.9248391    5.6308492 
        7.37   -1.5097483    1.8963071    5.7499905 
        7.38    -1.509912    1.8848052    5.7764551 
        7.39    -1.510248    1.8789036    5.7604457 
         7.4   -1.5100242    1.9179469    5.5392565 
        7.41   -1.5100979    1.9683161    5.2732246 
        7.42   -1.5113461    1.9628709    5.2663938 
        7.43   -1.5120883    1.9462595    5.3276508 
        7.44   -1.5127715    1.9559018    5.2835741 
        7.45   -1.5123573    1.9756651    5.1979675 
        7.46   -1.5121393    2.0133288    5.0372063 
        7.47   -1.5120222    2.0329754     4.965242 
        7.48   -1.5108193    2.0156007    5.0719941 
        7.49   -1.5114479    1.9855573    5.2407388 
         7.5   -1.5120877    1.9717067     5.335814 
        7.51   -1.5125163     1.986959      5.29556 
        7.52   -1.5121523    2.0020844    5.2526992 
        7.53   -1.5114625    1.9981802    5.2969766 
        7.54   -1.5116241    1.9993778    5.3286096 
        7.55   -1.5108741    1.9790284    5.4682302 
        7.56   -1.5101769    1.9090573     5.830719 
        7.57   -1.5096107    1.8297669    6.2247582 
        7.58   -1.5098535    1.7904547    6.4162528 
        7.59   -1.5114437    1.8100725    6.3145174 
         7.6   -1.5100585    1.8635382    6.0461558 
        7.61   -1.5104619    1.9032706    5.8328057 
        7.62   -1.5104409    1.9148579     5.760145 
        7.63   -1.5092729    1.9135127     5.770466 
        7.64   -1.5095341    1.8966735    5.8669159 
        7.65   -1.5096415    1.8670308    6.0290489 
        7.66   -1.5080725    1.8468842    6.1480089 
        7.67   -1.5066254    1.8479587     6.157419 
        7.68   -1.5059977    1.8785597     6.016715 
        7.69   -1.5043245    1.9173663    5.8279916 
         7.7   -1.5050929    1.9438552    5.6865455 
        7.71   -1.5056262    1.9620855    5.5882949 
        7.72   -1.5066585    1.9642745    5.5703909 
        7.73    -1.507184    1.9559051    5.6123312 
        7.74   -1.5066601    1.9377332     5.708973 
        7.75   -1.5078252    1.9154667    5.8253548 
        7.76   -1.5067884    1.9011789      5.90788 
        7.77   -1.5080864     1.899365    5.9220154 
        7.78   -1.5083319    1.9188301    5.8293711 
        7.79   -1.5075775    1.9654826    5.6084917 
         7.8    -1.508141    2.0077441    5.4088954 
        7.81   -1.5078522    2.0054365     5.424113 
        7.82   -1.5082208    1.9759087    5.5794643 
        7.83   -1.5062534    1.9411751    5.7732165 
        7.84   -1.5053179    1.9129468    5.9327638 
        7.85   -1.5045291    1.9098527    5.9645509 
        7.86   -1.5044215    1.9362216    5.8435682 
        7.87   -1.5040441    1.9741796    5.6533069 
        7.88   -1.5045636    2.0093915    5.4632952 
        7.89    -1.504451    2.0409565    5.2907297 
         7.9   -1.5060445    2.0532761     5.210859 
        7.91   -1.5055107    2.0277587    5.3154329 
        7.92   -1.5052042     1.982852    5.5114256 
        7.93   -1.5074249    1.9640524    5.5824128 
        7.94   -1.5105993    1.9727548    5.5186402 
        7.95   -1.5114903    1.9744889    5.4789691 
        7.96   -1.5109529    1.9787752    5.4278593 
        7.97   -1.5105835    1.9942523    5.3337705 
        7.98    -1.511903    1.9997166    5.2963351 
        7.99   -1.5116425    1.9808666    5.3870309 
           8   -1.5114987    1.9422997    5.5757845 
        8.01   -1.5112036    1.9047197    5.7579583 
        8.02   -1.5080734    1.9045495    5.7695746 
        8.03   -1.5102118    1.9393179    5.6119658 
        8.04   -1.5108693    1.9609374    5.5157836 
        8.05    -1.510833    1.9536822    5.5528983 
        8.06   -1.5115963    1.9450551    5.5959369 
        8.07   -1.5113497    1.9517871    5.5684667 
        8.08   -1.5125397    1.9641522    5.5106732 
        8.09   -1.5115247    1.9668041    5.5052783 
         8.1   -1.5098362    1.9375937    5.6550107 
        8.11    -1.511112    1.8767404    5.9506202 
        8.12   -1.5105687    1.8204133    6.2281079 
        8.13   -1.5110792    1.7967744    6.3439853 
        8.14   -1.5104272    1.8228916    6.2205796 
        8.15   -1.5102117    1.8902591    5.8988586 
        8.16   -1.5104899    1.9527722    5.5931404 
        8.17   -1.5108947    1.9817475    5.4417587 
        8.18   -1.5100841    1.9643471    5.5045409 
        8.19   -1.5114595    1.9336444    5.6218614 
         8.2   -1.5136963    1.9413523    5.5604517 
        8.21     -1.51398    1.9732717    5.3863684 
        8.22   -1.5137259    1.9988961    5.2393473 
        8.23   -1.5122802     2.003286    5.1920836 
        8.24   -1.5098964    1.9973209    5.1954546 
        8.25   -1.5106808    2.0124077    5.1010565 
        8.26   -1.5114939    2.0512114    4.9009631 
        8.27   -1.5122983    2.0885287    4.7115484 
        8.28    -1.511799    2.1004044    4.6502588 
        8.29   -1.5117839    2.0695863    4.7949742 
         8.3   -1.5114689    2.0172699    5.0488809 
        8.31   -1.5110841    1.9946174    5.1780696 
        8.32   -1.5115113     2.002785    5.1680863 
        8.33   -1.5130708     2.011773    5.1463515 
        8.34   -1.5132203    2.0198035    5.1275601 
        8.35   -1.5119249    2.0095557    5.1914365 
        8.36   -1.5106813    1.9784771    5.3480366 
        8.37   -1.5114909    1.9800792    5.3607099 
        8.38    -1.510752    1.9961148    5.3139536 
        8.39   -1.5109881    1.9865585    5.3788991 
         8.4   -1.5104352    1.9687204    5.4796425 
        8.41   -1.5100493    1.9697425    5.4895528 
        8.42   -1.5111026    1.9908987    5.3989907 
        8.43   -1.5099343    2.0252169    5.2493242 
        8.44   -1.5113887    2.0624944    5.0858803 
        8.45   -1.5112804    2.0801006    5.0210365 
        8.46   -1.5103461     2.058991    5.1356563 
        8.47   -1.5096573    2.0171426    5.3396312 
        8.48   -1.5103092      1.98771    5.4742318 
        8.49   -1.5112542    1.9738825    5.5215677 
         8.5   -1.5112682    1.9517819    5.5903886 
        8.51   -1.5108305    1.9201448    5.6883146 
        8.52   -1.5091137    1.9243604    5.6193608 
        8.53   -1.5111254    1.9812638    5.3080499 
        8.54   -1.5120994    2.0360293    5.0168301 
        8.55   -1.5127392    2.0298238    5.0147508 
        8.56   -1.5104422    1.9759872    5.2422182 
        8.57   -1.5100243    1.9488782    5.3481912 
        8.58   -1.5116481    1.9754904    5.2031269 
        8.59   -1.5108876    2.0113688     5.014767 
         8.6   -1.5128734    2.0253266    4.9283553 
        8.61   -1.5124713    1.9939345     5.063857 
        8.62   -1.5120234    1.9320406    5.3470215 
        8.63   -1.5101582    1.8991621    5.5035269 
        8.64   -1.5108527    1.9302538    5.3620052 
        8.65   -1.5108931    1.9872153    5.0968781 
        8.66   -1.5114113    2.0274804    4.9066978 
        8.67   -1.5107473    2.0447516    4.8353822 
        8.68   -1.5116621    2.0453386    4.8570896 
        8.69   -1.5107446    2.0300517    4.9724629 
         8.7   -1.5111325    2.0091396    5.1241994 
        8.71    -1.511522    1.9969543     5.241773 
        8.72   -1.5105156    1.9969194    5.3068032 
        8.73   -1.5116693    1.9808005    5.4349142 
        8.74   -1.5118889    1.9603859    5.5793648 
        8.75   -1.5128499    1.9650061    5.6121468 
        8.76    -1.513556    1.9542997    5.7146972 
        8.77   -1.5132465    1.8913219    6.0460276 
        8.78   -1.5127553    1.8447965    6.2897786 
        8.79   -1.5119707    1.8868616    6.1215393 
         8.8   -1.5090814    1.9225283     5.960738 
        8.81   -1.5098211    1.9376612    5.8742534 
        8.82   -1.5102329    1.9610288    5.7510429 
        8.83   -1.5103896    1.9722569    5.6860456 
        8.84   -1.5094551    1.9475266    5.7902902 
        8.85   -1.5097021     1.903031    5.9876111 
        8.86   -1.5083699     1.862207    6.1657814 
        8.87   -1.5087104    1.8647283    6.1282272 
        8.88   -1.5087753    1.9483163    5.7101476 
        8.89   -1.5085763    2.0518354    5.1950448 
         8.9    -1.510913    2.1056455    4.9092877 
        8.91    -1.510224    2.1090441    4.8800875 
        8.92   -1.5094332    2.0907254    4.9756531 
        8.93   -1.5089276     2.061134    5.1428426 
        8.94   -1.5076448    2.0076284     5.434275 
        8.95   -1.5085433    1.9190758      5.88686 
        8.96   -1.5085036    1.8194606    6.3874193 
        8.97   -1.5083539    1.7586394    6.7032179 
        8.98   -1.5099692     1.753622    6.7512263 
        8.99   -1.5103484    1.7653789    6.7048645 
           9   -1.5091808    1.7919087    6.5776798 
        9.01   -1.5094521     1.822255    6.4184021 
        9.02   -1.5100766    1.8461973    6.2786826 
        9.03   -1.5107342     1.875927    6.1097412 
        9.04   -1.5113973    1.9019677    5.9577512 
        9.05   -1.5102317     1.906648    5.9115847 
        9.06   -1.5086405    1.8818634     6.010357 
        9.07   -1.5088878    1.8515461    6.1457991 
        9.08    -1.508526    1.8308231    6.2507906 
        9.09   -1.5087746    1.8015665    6.3924137 
         9.1   -1.5092461    1.7791253    6.4897365 
        9.11   -1.5091326    1.8052659    6.3507566 
        9.12   -1.5083983    1.8651177    6.0415744 
        9.13   -1.5077584    1.9103907    5.7843994 
        9.14   -1.5059044    1.9269217    5.6560625 
        9.15   -1.5061611    1.9330116    5.5790068 
        9.16   -1.5060435     1.931441     5.550486 
        9.17   -1.5074879    1.9112355    5.6201643 
        9.18   -1.5082578     1.868595    5.8064785 
        9.19   -1.5079562    1.8207732     6.020572 
         9.2     -1.50768    1.8070709    6.0697862 
        9.21   -1.5065248    1.8499247    5.8487247 
        9.22   -1.5065815    1.9268203     5.462435 
        9.23   -1.5073563    1.9859936    5.1573691 
        9.24   -1.5080301    2.0203533    4.9851312 
        9.25   -1.5074881    2.0136148    5.0241194 
        9.26   -1.5082114    1.9879224    5.1664071 
        9.27   -1.5072233    1.9888839    5.2084675 
        9.28   -1.5072637    1.9738123    5.3240237 
        9.29   -1.5084612    1.9202185    5.5984424 
         9.3   -1.5085052    1.9120566    5.6581534 
        9.31   -1.5100997    1.9233642    5.6074282 
        9.32    -1.510967    1.9116191    5.6395935 
        9.33   -1.5122393     1.912213    5.6007341 
        9.34   -1.5114839    1.9531726    5.3768047 
        9.35   -1.5125598    2.0098801    5.0815469 
        9.36   -1.5111332    2.0476119    4.8894258 
        9.37   -1.5119065    2.0529593    4.8599195 
        9.38   -1.5120069    2.0342316     4.957634 
        9.39   -1.5115997    2.0161881    5.0640085 
         9.4   -1.5100438     2.014423     5.105401 
        9.41   -1.5112539    2.0210947    5.1122599 
        9.42   -1.5111458    2.0034605     5.238731 
        9.43   -1.5117669    1.9448567    5.5474118 
        9.44    -1.511979    1.8799772    5.8667556 
        9.45   -1.5113165    1.8619776    5.9425925 
        9.46    -1.511878    1.9042512    5.7075316 
        9.47   -1.5110173    1.9685554    5.3482286 
        9.48   -1.5102315    2.0077339    5.0899656 
        9.49   -1.5091805    2.0236542    4.9404869 
         9.5   -1.5097419    2.0249121     4.863196 
        9.51   -1.5089768    2.0114966    4.8569957 
        9.52   -1.5084091    2.0621419    4.5808093 
        9.53   -1.5094903    2.1191782    4.2936611 
        9.54   -1.5085592    2.1260113    4.2613561 
        9.55   -1.5077651    2.0917116    4.4406663 
        9.56   -1.5082668    2.0388809     4.720035 
        9.57    -1.509724    1.9950484    4.9712356 
        9.58   -1.5115488    1.9578698    5.1993488 
        9.59   -1.5105164    1.9282916    5.4003876 
         9.6   -1.5107528    1.9031336    5.5743869 
        9.61    -1.510795    1.8893699    5.6883854 
        9.62   -1.5096892     1.865462    5.8293673 
        9.63   -1.5092758    1.8753871    5.7980319 
        9.64   -1.5120474    1.9311853    5.5416913 
        9.65    -1.512719    1.9902109    5.2722906 
        9.66   -1.5118205    2.0192487    5.1548415 
        9.67   -1.5116696    2.0000308    5.2748703 
        9.68   -1.5113689    1.9538897    5.5367323 
        9.69   -1.5119005    1.9177876    5.7663857 
         9.7   -1.5117854    1.8929765    5.9499713 
        9.71   -1.5112613    1.8699863    6.1216357 
        9.72   -1.5124354    1.8545177    6.2475639 
        9.73   -1.5119344    1.8498743    6.3133553 
        9.74   -1.5125982    1.8444284    6.3596823 
        9.75   -1.5120343    1.8419203    6.3650246 
        9.76   -1.5118961    1.8768778    6.1705687 
        9.77   -1.5121935    1.9500737     5.783274 
        9.78   -1.5120899    2.0174436    5.4223203 
        9.79   -1.5110395    2.0390283    5.2885382 
         9.8   -1.5130989    2.0119111     5.399656 
        9.81   -1.5135841    1.9662273    5.6249098 
        9.82   -1.5150229    1.9404129    5.7766178 
        9.83   -1.5140141    1.9353097    5.8421579 
        9.84   -1.5150742     1.924552    5.9220213 
        9.85   -1.5149145    1.9011203    6.0507763 
        9.86   -1.5153488    1.8906449      6.11761 
        9.87   -1.5150762    1.8709099    6.2208239 
        9.88   -1.5142762    1.8435424    6.3474671 
        9.89   -1.5128259    1.8278306    6.4063763 
         9.9   -1.5137588    1.8393634    6.3249973 
        9.91   -1.5136915     1.857536     6.205945 
        9.92   -1.5139055    1.8323247     6.267942 
        9.93     -1.51164    1.7985085    6.3588636 
        9.94   -1.5109522    1.8118669    6.2196667 
        9.95   -1.5098247    1.9024838    5.7271503 
        9.96   -1.5106941    2.0150185    5.1424013 
        9.97   -1.5110615    2.0592768     4.888678 
        9.98   -1.5102146    2.0408425    4.9533011 
        9.99   -1.5102012    2.0129851    5.0923212 
          10   -1.5101075    1.9925211    5.2199979 
Loop time of 0.84111 on 8 procs for 10000 steps with 125 atoms

Performance: 1027214.049 tau/day, 11889.051 timesteps/s
170.9% CPU use with 1 MPI tasks x 8 OpenMP threads

MPI task timing breakdown:
Section |  min time  |  avg time  |  max time  |%varavg| %total
---------------------------------------------------------------
Pair    | 0.5093     | 0.5093     | 0.5093     |   0.0 | 60.55
Neigh   | 0.00299    | 0.00299    | 0.00299    |   0.0 |  0.36
Comm    | 0.052821   | 0.052821   | 0.052821   |   0.0 |  6.28
Output  | 0.01595    | 0.01595    | 0.01595    |   0.0 |  1.90
Modify  | 0.25506    | 0.25506    | 0.25506    |   0.0 | 30.32
Other   |            | 0.004984   |            |       |  0.59

Nlocal:        125.000 ave         125 max         125 min
Histogram: 1 0 0 0 0 0 0 0 0 0
Nghost:        2225.00 ave        2225 max        2225 min
Histogram: 1 0 0 0 0 0 0 0 0 0
Neighs:        19030.0 ave       19030 max       19030 min
Histogram: 1 0 0 0 0 0 0 0 0 0

Total # of neighbors = 19030
Ave neighs/atom = 152.24000
Neighbor list builds = 31
Dangerous builds = 0
unfix nve
reset_timestep 0

### BRING SYSTEM TO REQUIRED STATE ###
variable tdamp equal ${timestep}*100
variable tdamp equal 0.001*100
variable pdamp equal ${timestep}*1000
variable pdamp equal 0.001*1000
fix npt all npt temp ${T} ${T} ${tdamp} iso ${p} ${p} ${pdamp}
fix npt all npt temp 2.5 ${T} ${tdamp} iso ${p} ${p} ${pdamp}
fix npt all npt temp 2.5 2.5 ${tdamp} iso ${p} ${p} ${pdamp}
fix npt all npt temp 2.5 2.5 0.1 iso ${p} ${p} ${pdamp}
fix npt all npt temp 2.5 2.5 0.1 iso 3 ${p} ${pdamp}
fix npt all npt temp 2.5 2.5 0.1 iso 3 3 ${pdamp}
fix npt all npt temp 2.5 2.5 0.1 iso 3 3 1
run 10000
Last active /omp style is pair_style lj/cut/omp
Per MPI rank memory allocation (min/avg/max) = 10.63 | 10.63 | 10.63 Mbytes
Time TotEng Temp Press 
          10   -1.5101075    1.9925211    5.2199979 
       10.01    -1.505546    1.9630499    5.4029926 
       10.02    -1.489766    1.9501717    5.5276742 
       10.03   -1.4634629    1.9949659    5.4093357 
       10.04   -1.4247905    2.0573023     5.237309 
       10.05   -1.3756961    2.0877702    5.2360956 
       10.06   -1.3194365    2.1022542    5.3312725 
       10.07   -1.2596575    2.1247177    5.4024339 
       10.08   -1.2010926    2.1527732    5.4410578 
       10.09   -1.1478056    2.1567002    5.5572416 
        10.1    -1.102442    2.1289462    5.7616785 
       10.11   -1.0668751    2.1222019    5.8096817 
       10.12    -1.039708    2.1758637    5.5381587 
       10.13   -1.0176501    2.2448716    5.1647006 
       10.14  -0.99802284    2.2755659    4.9387446 
       10.15  -0.98489319    2.2744686    4.8309144 
       10.16  -0.97380339    2.2725593    4.7178724 
       10.17  -0.96305507     2.264782    4.6264965 
       10.18  -0.95160306    2.2319497    4.6395724 
       10.19  -0.94108075     2.186583    4.6992619 
        10.2  -0.93000016    2.1469639     4.725603 
       10.21  -0.91694761    2.1167999     4.698859 
       10.22  -0.89817667    2.1162197    4.5451636 
       10.23  -0.87302582    2.1515243    4.2552549 
       10.24  -0.84242233    2.1761731    4.0258311 
       10.25  -0.80755881    2.1775196     3.902657 
       10.26  -0.77070322     2.213643    3.6521583 
       10.27  -0.72978242    2.2894747    3.2676519 
       10.28  -0.68589297    2.3544832    2.9575178 
       10.29  -0.64249246    2.3714853    2.8661647 
        10.3  -0.60139614     2.337852    2.9941593 
       10.31  -0.56562379    2.2821836    3.2141559 
       10.32  -0.53251367    2.2379943    3.3925867 
       10.33   -0.5020198    2.2138331    3.4944407 
       10.34  -0.46656614    2.2087617     3.536121 
       10.35  -0.42988067    2.2093508    3.5668653 
       10.36  -0.39337745    2.1829366    3.7007909 
       10.37  -0.35668046    2.1573844     3.823054 
       10.38  -0.31868347    2.1969445    3.6968002 
       10.39  -0.27667917    2.2718103    3.4446742 
        10.4  -0.23152524    2.3020092    3.3601849 
       10.41  -0.18690139    2.3195094    3.3205523 
       10.42  -0.14296396    2.3774173    3.1383414 
       10.43 -0.098856098    2.4232159    3.0085865 
       10.44 -0.055840474    2.4122649    3.0908503 
       10.45 -0.021397894     2.351444    3.3390803 
       10.46  0.013598108    2.3272847    3.4463663 
       10.47  0.048361727    2.3789398    3.2777467 
       10.48  0.085115855    2.4204067    3.1481295 
       10.49   0.12171193    2.4097952    3.2071027 
        10.5   0.15715593    2.3555113    3.4133806 
       10.51   0.19120912    2.3275028    3.5063991 
       10.52   0.22759193    2.4191241    3.1708771 
       10.53   0.26806297    2.5637264    2.6585349 
       10.54   0.30939831    2.6537342    2.3555441 
       10.55   0.34668572    2.6694502    2.3319952 
       10.56   0.37679415    2.6319853    2.5050987 
       10.57   0.39909585    2.5675744    2.7689707 
       10.58   0.41859781    2.5251133    2.9501607 
       10.59   0.43541557    2.5573098    2.8716033 
        10.6   0.45116751    2.6018271    2.7494826 
       10.61   0.46284009     2.615914    2.7293343 
       10.62     0.473577    2.6044623    2.7998542 
       10.63   0.48088773    2.5749722    2.9297487 
       10.64   0.48804841    2.5410637    3.0752897 
       10.65   0.49313789     2.493147    3.2641642 
       10.66   0.49565839    2.4171233    3.5365301 
       10.67   0.50113853    2.3670169    3.7134891 
       10.68     0.507688    2.3730991    3.6881143 
       10.69   0.52068674    2.4343167    3.4760094 
        10.7   0.53702563    2.5060202    3.2286188 
       10.71   0.55674552    2.5677193    3.0242645 
       10.72   0.57635461     2.600449    2.9286494 
       10.73   0.59590961     2.585791    3.0021557 
       10.74   0.61516794    2.5308821    3.2124906 
       10.75   0.63171515    2.4714792    3.4278344 
       10.76   0.64802387    2.4464557    3.5171773 
       10.77   0.66766643    2.4688886    3.4468771 
       10.78    0.6910681    2.4975954     3.358935 
       10.79   0.71731863    2.5037943    3.3500301 
        10.8   0.74709148    2.5043461    3.3677356 
       10.81   0.77847581    2.5260699    3.3269676 
       10.82    0.8108088     2.549464    3.2934794 
       10.83   0.84732702    2.5683221    3.2925481 
       10.84   0.88390151    2.5933849    3.2817813 
       10.85   0.91801086    2.6157907    3.2785453 
       10.86   0.95228309    2.6312553    3.2907801 
       10.87   0.98302511    2.6604618    3.2440753 
       10.88    1.0113935    2.6901754    3.1824346 
       10.89    1.0375959    2.6843848    3.2207103 
        10.9     1.058157    2.6566066    3.3112433 
       10.91     1.074084    2.6240439    3.3965485 
       10.92    1.0868473    2.6113828    3.3987929 
       10.93    1.0993025     2.679398    3.1431207 
       10.94     1.109487    2.7578586    2.8546987 
       10.95    1.1154303    2.7888461    2.7165823 
       10.96    1.1165646    2.7970692    2.6533621 
       10.97    1.1097764    2.7957357    2.6173927 
       10.98    1.0937732     2.774751    2.6320503 
       10.99    1.0670277    2.7416867    2.6660777 
          11     1.029173    2.7032072    2.6925561 
       11.01   0.97587429    2.6562616    2.7114978 
       11.02   0.90849049    2.5966542    2.7337145 
       11.03   0.82910612    2.5358994    2.7246555 
       11.04   0.74115909    2.4803819    2.6684934 
       11.05   0.64727689    2.4311359    2.5676155 
       11.06   0.55268157    2.3969714    2.4078149 
       11.07   0.46168687    2.3785357    2.2016796 
       11.08   0.37849123     2.365003    1.9975797 
       11.09   0.30739381     2.349863    1.8302515 
        11.1   0.24739001    2.3284539    1.7201777 
       11.11   0.19835815    2.2939732     1.691666 
       11.12    0.1617631    2.2522399    1.7304832 
       11.13   0.13522837    2.2060241    1.8245171 
       11.14   0.11905475    2.1466909     1.994978 
       11.15   0.11498869    2.0858392    2.1995402 
       11.16   0.12161859    2.0668627    2.2959053 
       11.17   0.13826713    2.1100832    2.2175251 
       11.18   0.16538946    2.1681843    2.1092992 
       11.19    0.2009459    2.2043028    2.0849192 
        11.2   0.24604874    2.2269101    2.1195438 
       11.21   0.29738355    2.2933301    2.0353996 
       11.22   0.35436088    2.3950622    1.8605636 
       11.23   0.41381291    2.4567749    1.8253566 
       11.24   0.47194041    2.4753794    1.9404346 
       11.25   0.53060382    2.4822133    2.1114076 
       11.26   0.58509498    2.5057321    2.2439458 
       11.27   0.63779281    2.5281241    2.3924599 
       11.28   0.68971801    2.5294676    2.6158914 
       11.29   0.73720146    2.5153173    2.8864512 
        11.3   0.78249856    2.4734712    3.2285833 
       11.31   0.82735794     2.468119    3.4327279 
       11.32   0.86953362    2.5265275    3.4080744 
       11.33   0.90911625    2.5681808    3.4057621 
       11.34   0.94473128    2.6237726    3.3376289 
       11.35     0.972355    2.7037603    3.1682162 
       11.36   0.99195241    2.7783273    2.9916083 
       11.37    1.0022754    2.8159955    2.9071791 
       11.38    1.0004321    2.8302153    2.8730063 
       11.39   0.98968996    2.8342007    2.8546445 
        11.4   0.96786323    2.8226338    2.8721357 
       11.41   0.93900978    2.7743603    3.0027205 
       11.42   0.90514776    2.6705137    3.3081648 
       11.43   0.87262112    2.5397805    3.6935753 
       11.44   0.84271582    2.4683818    3.8689168 
       11.45   0.81591507    2.4965906    3.6962162 
       11.46   0.79130961    2.5567173    3.3947178 
       11.47   0.76704651    2.6023733    3.1269208 
       11.48    0.7411773    2.6283419    2.9210176 
       11.49   0.71464615    2.6345359    2.7848321 
        11.5   0.68619191    2.6339595    2.6804017 
       11.51   0.65703761    2.6165873    2.6441774 
       11.52   0.63020195    2.5858049    2.6712227 
       11.53   0.60639109    2.5568172    2.7151871 
       11.54   0.58553713    2.5197846    2.8075073 
       11.55   0.56994054    2.4793799    2.9362604 
       11.56   0.55790168    2.4355344    3.0975232 
       11.57   0.55170658    2.3905005    3.2814741 
       11.58   0.55033697    2.3827947    3.3572909 
       11.59   0.54993857    2.4038947    3.3438586 
        11.6   0.55614508    2.4067628     3.395001 
       11.61   0.56354345    2.4307021    3.3736517 
       11.62   0.57137006    2.4495027    3.3586438 
       11.63   0.58056157     2.452293    3.3847444 
       11.64    0.5889779    2.4840707    3.3007778 
       11.65   0.59706818    2.5413944    3.1170256 
       11.66   0.60419406    2.5996965    2.9202963 
       11.67    0.6081378    2.6387768    2.7856447 
       11.68   0.60790936    2.6451387    2.7658588 
       11.69   0.60300419    2.6172928    2.8685279 
        11.7   0.59636242    2.5679973    3.0497497 
       11.71   0.58697587    2.5346499    3.1737982 
       11.72   0.57573756    2.5566824    3.1036234 
       11.73   0.56202625    2.6050137    2.9347374 
       11.74   0.54563653    2.6092608    2.9039085 
       11.75   0.52614105    2.5776106     2.985655 
       11.76   0.50527128     2.571888     2.977601 
       11.77   0.48077829    2.5639669    2.9695131 
       11.78    0.4520709    2.5222677    3.0718239 
       11.79   0.42150353    2.4541542    3.2690558 
        11.8   0.39170944    2.3742597    3.5171469 
       11.81   0.36179978    2.2888232    3.7903568 
       11.82   0.33721619    2.2261558    3.9969457 
       11.83   0.31594032    2.1737955    4.1672856 
       11.84   0.30159552    2.1352046    4.2865058 
       11.85   0.29129263    2.1447638    4.2327661 
       11.86     0.288429    2.1977351    4.0288169 
       11.87   0.29269384    2.2481148    3.8353539 
       11.88   0.30786715    2.2814251    3.7120116 
       11.89   0.33400735    2.3363753    3.5349579 
        11.9   0.37467807    2.4179474    3.2949856 
       11.91    0.4305826    2.5036516    3.0727912 
       11.92   0.49952816    2.5930961     2.876172 
       11.93   0.58371393    2.6714092    2.7648648 
       11.94   0.66893605    2.7060084     2.829153 
       11.95   0.75241197    2.6963463    3.0565515 
       11.96   0.82763448    2.6802545    3.2968224 
       11.97    0.8936275    2.7071131    3.3724968 
       11.98   0.95160502    2.7688345    3.3084526 
       11.99   0.99736518    2.7887344    3.3499618 
          12    1.0329826     2.772268    3.4798389 
       12.01    1.0540396    2.7637733    3.5427628 
       12.02    1.0667233    2.7509518    3.5752616 
       12.03    1.0693809    2.7612167    3.4857269 
       12.04    1.0648546    2.7821087     3.327006 
       12.05    1.0511304    2.7997158    3.1563448 
       12.06    1.0264619    2.8026786    3.0190546 
       12.07   0.99281716    2.7877007    2.9332847 
       12.08   0.94752094    2.7782405    2.8250512 
       12.09   0.89464467    2.7423279    2.8013949 
        12.1   0.83485271    2.6692431    2.8939577 
       12.11   0.77002978    2.5922807    2.9941603 
       12.12    0.7028813    2.5279662    3.0518931 
       12.13   0.63742187    2.4586602    3.1310196 
       12.14   0.57602657    2.3817615    3.2430346 
       12.15   0.52159388    2.3265402    3.2965077 
       12.16   0.47363067    2.2697763     3.360588 
       12.17   0.43417609    2.2164322    3.4186243 
       12.18   0.40334942    2.2124147    3.3229694 
       12.19   0.38163787    2.2363166    3.1411278 
        12.2   0.36776382    2.2577732    2.9738148 
       12.21   0.35948496    2.2643296    2.8641422 
       12.22   0.35933156    2.2749573    2.7590357 
       12.23   0.36592349    2.3039946    2.6140155 
       12.24   0.37847161     2.361648    2.4016507 
       12.25   0.39584673     2.431169    2.1829552 
       12.26   0.41772155     2.460554    2.1289191 
       12.27   0.43830028    2.4275768    2.3036481 
       12.28   0.46216328    2.3579338    2.6208847 
       12.29   0.48740968    2.3150921    2.8620912 
        12.3   0.51759581    2.3366411    2.9019556 
       12.31   0.55099474    2.3616559    2.9202509 
       12.32   0.58734663    2.3874862    2.9201543 
       12.33   0.62773573    2.4579457    2.7685953 
       12.34   0.67099634    2.5320723    2.5975057 
       12.35   0.71199764    2.6073257    2.4179741 
       12.36   0.74950999    2.6961542    2.2006198 
       12.37   0.77999171     2.733112    2.1515506 
       12.38   0.79973364    2.7001829    2.3260425 
       12.39   0.81217943    2.6262018    2.6318267 
        12.4   0.81839692    2.5581541    2.9108507 
       12.41   0.82201752    2.5305701    3.0478713 
       12.42    0.8240321    2.5366165    3.0574687 
       12.43   0.82547817    2.5623503    2.9827087 
       12.44    0.8245222    2.6053944    2.8348314 
       12.45   0.82121443     2.638566    2.7086783 
       12.46    0.8140915    2.6285873     2.714897 
       12.47    0.8043508    2.6066075    2.7650985 
       12.48   0.79345003    2.5757669    2.8522247 
       12.49   0.78432733    2.5096646    3.0551005 
        12.5   0.77653735    2.4608063    3.2009271 
       12.51    0.7706282    2.4785319    3.1286104 
       12.52   0.76615923    2.5162516    2.9785547 
       12.53   0.76131859    2.5464209    2.8367636 
       12.54   0.75517758    2.5858798    2.6534826 
       12.55   0.74558813     2.613883    2.4914379 
       12.56   0.73311217    2.6340912    2.3440401 
       12.57   0.71778181     2.655401    2.1896874 
       12.58   0.69768936    2.6684514     2.062589 
       12.59   0.67252966    2.6657595    1.9920543 
        12.6   0.64282629     2.640629     2.002362 
       12.61   0.61083871    2.5930336    2.0943941 
       12.62   0.57625492    2.5416031    2.2032784 
       12.63   0.54108844    2.5111979    2.2462297 
       12.64   0.50636681    2.5101322    2.1972401 
       12.65   0.47078707    2.5140152    2.1369405 
       12.66   0.43500043    2.5029263     2.137265 
       12.67    0.4004937    2.4724654    2.2201388 
       12.68   0.36717151     2.416528    2.4058285 
       12.69   0.33921161     2.331957    2.7030842 
        12.7   0.31927744    2.2453437    3.0175516 
       12.71   0.30753026    2.2124316    3.1588608 
       12.72   0.30268963    2.2309132     3.125905 
       12.73   0.30503025    2.2640422    3.0401572 
       12.74   0.31179734    2.2963474    2.9554805 
       12.75   0.32374527    2.3409017    2.8369511 
       12.76   0.34077885    2.4097627    2.6532429 
       12.77   0.36013492    2.4675957     2.523399 
       12.78   0.38257604    2.4789184    2.5699133 
       12.79   0.40765298    2.4556868    2.7541068 
        12.8   0.43590482    2.4316274    2.9621439 
       12.81   0.46829726    2.4139998     3.166215 
       12.82   0.50703926    2.4036677     3.362937 
       12.83   0.55245697    2.4011756     3.547888 
       12.84   0.60743097    2.3917928    3.7625169 
       12.85   0.67497179    2.4577008    3.7322825 
       12.86   0.75267439    2.6530844    3.2910972 
       12.87   0.84110676    2.7737721    3.1321081 
       12.88   0.93380473    2.7687822    3.4256619 
       12.89    1.0228748    2.7820977    3.6818451 
        12.9    1.1073757    2.7778031    3.9944845 
       12.91    1.1843652    2.7734761    4.2839073 
       12.92    1.2535711    2.7727203    4.5189512 
       12.93    1.3131176      2.78018    4.6692187 
       12.94    1.3614311    2.8375975    4.5901121 
       12.95     1.398966     2.917228    4.3773282 
       12.96    1.4187796    2.9937923     4.117249 
       12.97    1.4206364    3.0446866    3.8915692 
       12.98    1.3995611    3.0668812    3.7061661 
       12.99    1.3560362    3.0757739    3.5104825 
          13    1.2915876    3.0686269    3.3149346 
       13.01    1.2030287    3.0342526    3.1531183 
       13.02    1.0930201    2.9824748    3.0019583 
       13.03   0.96944273    2.9152672    2.8785144 
       13.04   0.84503817    2.8308068    2.8256829 
       13.05   0.73134336    2.7309339    2.8718227 
       13.06   0.63815126    2.6041176    3.0724202 
       13.07   0.56508506    2.4806619    3.3149515 
       13.08   0.51331958    2.4141471    3.4052851 
       13.09   0.47592082    2.3908867    3.3669339 
        13.1   0.44524097    2.3816083    3.2820396 
       13.11   0.42326401    2.3998414    3.1086232 
       13.12   0.40712374    2.4575558    2.8096091 
       13.13   0.39386523    2.5140229    2.5246691 
       13.14   0.37982977    2.5361113     2.367002 
       13.15   0.36596781    2.5196262    2.3525449 
       13.16   0.35342374    2.4938726    2.3802924 
       13.17   0.34055911      2.50327    2.3011754 
       13.18   0.33030465    2.5037129    2.2678166 
       13.19   0.31993295    2.4379659    2.4689527 
        13.2   0.31068866    2.3507458    2.7559143 
       13.21   0.30594408     2.310879    2.8960287 
       13.22   0.30770901    2.3173376    2.8843637 
       13.23   0.31475323    2.3554281    2.7657236 
       13.24   0.32505725    2.4195519    2.5614464 
       13.25   0.34015896    2.4842954    2.3666636 
       13.26   0.35591962    2.5173615    2.2903791 
       13.27   0.37416732    2.5258555    2.3118301 
       13.28   0.39202188    2.5391842    2.3276107 
       13.29   0.40919093    2.5523432    2.3527082 
        13.3   0.42832955     2.548297    2.4481923 
       13.31   0.44584873    2.5282829    2.6055769 
       13.32   0.46563362    2.5028662    2.7907897 
       13.33   0.48484782    2.4781399    2.9749095 
       13.34   0.50525139    2.4512509    3.1625605 
       13.35   0.52963777    2.4350079    3.3089981 
       13.36    0.5560387    2.4474936    3.3498904 
       13.37   0.58634642    2.4845309    3.3036279 
       13.38   0.61859202    2.5364739    3.2062274 
       13.39   0.65345535    2.5959116    3.0913045 
        13.4   0.68771129    2.6303693    3.0663011 
       13.41   0.72169383    2.6351835    3.1446343 
       13.42   0.75109611    2.6549084    3.1700897 
       13.43   0.77763569    2.6842173    3.1622958 
       13.44   0.80003052    2.6869896    3.2435219 
       13.45   0.81886923    2.6761387    3.3737753 
       13.46   0.83394017    2.6664385    3.4952711 
       13.47   0.84373576    2.6779902    3.5319519 
       13.48   0.84805668    2.6705103    3.6113747 
       13.49   0.84749102    2.6383987    3.7516879 
        13.5   0.84163639    2.5990961    3.8923097 
       13.51   0.82847802    2.5710826    3.9668271 
       13.52   0.81057492    2.5508095     3.990064 
       13.53   0.79001563    2.5182713    4.0294928 
       13.54    0.7640026    2.5369833     3.878982 
       13.55   0.73259989    2.5116046    3.8522608 
       13.56    0.6980277    2.4718508    3.8563948 
       13.57   0.65951149     2.461663    3.7399535 
       13.58    0.6196331    2.4844682    3.4960686 
       13.59   0.57346326    2.4962345    3.2718012 
        13.6   0.52448691    2.4778336    3.1424514 
       13.61   0.47334755    2.4504288     3.044179 
       13.62   0.42308227    2.4170681    2.9728507 
       13.63   0.37024326    2.3712787    2.9477272 
       13.64   0.31985837    2.3212172     2.948066 
       13.65   0.27582454    2.2793693    2.9334003 
       13.66   0.23445303    2.2577439     2.856642 
       13.67   0.19798718    2.2625467    2.7027054 
       13.68   0.16852087    2.2758562    2.5401097 
       13.69     0.144684    2.2603549    2.4937091 
        13.7   0.12702733    2.2185988    2.5527061 
       13.71   0.11592356    2.2114351    2.5151581 
       13.72    0.1138166    2.2558871    2.3313359 
       13.73   0.11929675    2.3021689    2.1717474 
       13.74   0.13252442    2.3213222    2.1424629 
       13.75   0.15196149    2.3182957    2.2295146 
       13.76   0.17893424    2.3045144    2.3930765 
       13.77   0.21646362    2.2778071    2.6325773 
       13.78   0.26185624    2.2634171    2.8508624 
       13.79   0.31885482    2.2980003    2.9261739 
        13.8   0.38660339    2.3555146    2.9370674 
       13.81   0.46333545    2.4204514    2.9312547 
       13.82    0.5463964    2.4982772    2.8889374 
       13.83   0.62924082    2.5774241    2.8407453 
       13.84   0.70718049      2.62938    2.8731683 
       13.85   0.77459565    2.6371083    3.0304205 
       13.86   0.82901328    2.6203311    3.2371035 
       13.87   0.87402563    2.6303558    3.3257952 
       13.88   0.90845591     2.662897    3.3089059 
       13.89   0.93333779    2.6766543    3.3256236 
        13.9   0.95010879    2.6610482    3.4165774 
       13.91   0.95944314    2.6399323    3.5053592 
       13.92   0.96145208    2.6491043    3.4744087 
       13.93   0.95796088      2.68705    3.3298791 
       13.94   0.94890884    2.7038905    3.2311244 
       13.95   0.93508577    2.6916141    3.2025087 
       13.96   0.91394122    2.7297724    2.9892241 
       13.97   0.88604426    2.8140126    2.6139113 
       13.98   0.85040501    2.8567999    2.3690096 
       13.99   0.80447901    2.8153414    2.4007834 
          14   0.75265301    2.6872567    2.7191164 
       14.01   0.69921097    2.5105335     3.188145 
       14.02   0.65113816    2.3883072    3.4622008 
       14.03   0.61004628    2.3761283    3.3531891 
       14.04   0.57447948    2.4297187    3.0109368 
       14.05   0.54150598    2.4777974    2.6818811 
       14.06   0.51143526    2.4886394    2.4834017 
       14.07   0.48641636     2.503825    2.2928387 
       14.08   0.46015323    2.5324329    2.0761128 
       14.09   0.43751044    2.5337272    1.9698946 
        14.1   0.41639832    2.5078402    1.9724853 
       14.11   0.39667879    2.4861627    1.9805683 
       14.12   0.38044808    2.4890175    1.9287374 
       14.13   0.36556137    2.4982081    1.8722698 
       14.14   0.35005585    2.4864011    1.8978816 
       14.15   0.33767163    2.4551137    2.0060145 
       14.16   0.32793274     2.410725    2.1725591 
       14.17   0.32316201    2.3635127    2.3623952 
       14.18   0.32453042    2.3349212    2.5058104 
       14.19   0.33159198     2.321757    2.6133478 
        14.2   0.34413843    2.3015141    2.7595313 
       14.21   0.36284124    2.2864672     2.908444 
       14.22   0.38519596    2.2781364    3.0489529 
[...]
   27050 -0.066043547    2.2404001    2.8142175   0.61699382 
   27060 -0.058469165    2.2391709    2.7834514   0.61489166 
   27070 -0.046808479    2.2199387    2.8304027   0.61276906 
   27080 -0.031079073    2.1774321    2.9692572   0.61062026 
   27090 -0.012878185    2.1327101    3.1162324   0.60842943 
   27100  0.011040687    2.1448644    3.0708027   0.60618102 
   27110  0.040745519     2.216298     2.828556   0.60388023 
   27120  0.077224088    2.2872528    2.5983801   0.60155368 
   27130   0.11589678    2.3293125    2.4771522   0.59922852 
   27140   0.15285453    2.3434551    2.4584954   0.59692039 
   27150    0.1889912    2.3347801    2.5211175   0.59463275 
   27160   0.22170632    2.3356234    2.5505148   0.59236063 
   27170   0.25409985    2.3513236    2.5311823   0.59010182 
   27180   0.28429097    2.3528926    2.5539909   0.58785876 
   27190   0.31163236     2.339961    2.6170946   0.58562987 
   27200   0.33693358    2.3383203    2.6372363   0.58340973 
   27210   0.36152313    2.3417794     2.634285   0.58119669 
   27220   0.38490175    2.3513983    2.6011502   0.57899219 
   27230   0.41044792    2.3933308    2.4586702   0.57680227 
   27240   0.43558184    2.4465908    2.2749123   0.57464431 
   27250   0.45995671    2.4881585    2.1313881   0.57254074 
   27260   0.48333301    2.5065826    2.0711187   0.57050976 
   27270   0.50598352    2.4969519     2.111052   0.56855997 
   27280   0.52383938    2.4731316    2.2000735   0.56668874 
   27290   0.54075085      2.44948    2.2932818   0.56488723 
   27300   0.55786032    2.4250646    2.3888649    0.5631455 
   27310   0.57467915    2.4171017    2.4296146   0.56145384 
   27320   0.59305438    2.4217364    2.4288022   0.55980819 
   27330   0.61271736    2.4175255    2.4514261    0.5582087 
   27340   0.63324273    2.4258022    2.4326179   0.55665424 
   27350   0.65615129    2.4646065    2.3230625   0.55514838 
   27360   0.67996678    2.5047447    2.2161551   0.55370394 
   27370   0.70497669    2.5191087     2.198447   0.55233354 
   27380   0.72730717     2.521646    2.2230372   0.55104081 
   27390   0.75138897    2.5267263    2.2477846   0.54982416 
   27400   0.77384449    2.5284193    2.2830841    0.5486814 
   27410   0.79422831    2.5210476    2.3431215   0.54760895 
   27420   0.81377215    2.5164524    2.3934137   0.54660083 
   27430   0.83400387    2.5106681    2.4467418   0.54565155 
   27440   0.85416751    2.5105717     2.480144   0.54475554 
   27450   0.87460816    2.5348446    2.4395419   0.54391015 
   27460    0.8934718    2.5566709     2.406667   0.54311988 
   27470   0.91331302    2.5470276    2.4718762   0.54238825 
   27480   0.93184142    2.5215144    2.5790756   0.54170862 
   27490   0.95033781    2.5403202    2.5424221   0.54107085 
   27500   0.96903352    2.5994448    2.3721848   0.54047961 
   27510   0.99032498    2.6466027    2.2327954   0.53995397 
   27520    1.0080728    2.6661985    2.1722842   0.53951104 
   27530    1.0245616    2.6756158    2.1455241   0.53915948 
   27540    1.0380473    2.7016341    2.0744526   0.53890462 
   27550    1.0457133    2.7185422    2.0328181   0.53875539 
   27560    1.0492739    2.7057096    2.0809772   0.53871757 
   27570    1.0460717    2.6928136    2.1235083   0.53878814 
   27580    1.0374191    2.6884315    2.1311587   0.53896392 
   27590    1.0185681    2.6680198    2.1673572   0.53924485 
   27600   0.98807351    2.6418559    2.1983537   0.53962881 
   27610   0.94602427    2.6062254    2.2318736   0.54011368 
   27620   0.89279463    2.5569062    2.2805109   0.54069708 
   27630   0.82880505    2.5019041    2.3252071   0.54137514 
   27640   0.76054456    2.4373126    2.3919737   0.54214393 
   27650   0.68773378    2.3448151    2.5377772   0.54299645 
   27660   0.62376229    2.2854457    2.5929341   0.54391829 
   27670   0.56524183    2.3288068     2.344734   0.54490685 
   27680   0.51161394    2.3684861    2.1130288   0.54598912 
   27690   0.46146376     2.369091    2.0155064   0.54719368 
   27700   0.41984832    2.3459956    2.0157585   0.54853488 
   27710    0.3851696    2.3080943     2.080818   0.55001549 
   27720      0.36006    2.2752119    2.1468712   0.55163061 
   27730   0.34488269    2.2989001    2.0564031    0.5533763 
   27740   0.33506848    2.3503472    1.8941045    0.5552644 
   27750   0.32892755    2.3755266    1.8296069   0.55731464 
   27760   0.32689386    2.3857917    1.8337197   0.55953746 
   27770   0.32982197    2.3994433    1.8490868   0.56193502 
   27780   0.33695494    2.4254474    1.8451956   0.56450765 
   27790   0.34687238    2.4490887    1.8683018    0.5672567 
   27800   0.35778502    2.4467928    1.9946949    0.5701794 
   27810   0.37281492    2.4250115    2.2093242   0.57326097 
   27820   0.39258206    2.4173111    2.4030784   0.57647626 
   27830   0.41867026    2.4240489    2.5703142   0.57980029 
   27840   0.44784216    2.4270463    2.7622923   0.58320983 
   27850   0.48006682    2.4170532     3.005259   0.58667811 
   27860   0.52017341     2.410707     3.245224   0.59017242 
   27870   0.56622191    2.4324069     3.394158   0.59366045 
   27880   0.61687309    2.4738336    3.4726064   0.59711901 
   27890   0.66936826    2.5381349     3.468766   0.60053399 
   27900   0.72115321    2.6077201    3.4410753   0.60390024 
   27910   0.77296834    2.6660212    3.4537721   0.60721595 
   27920   0.82177167    2.6726339    3.6431235   0.61047397 
   27930   0.86822195    2.6526521    3.9225569   0.61364827 
   27940   0.91207045    2.7310132    3.8656165   0.61670731 
   27950   0.94637615    2.8088726    3.7861737   0.61965067 
   27960   0.97313336    2.8001273    3.9810632   0.62248215 
   27970   0.98955574     2.769888     4.225049   0.62517913 
   27980   0.99346693     2.735718    4.4435284    0.6277116 
   27990   0.98360306    2.6989371    4.6215802   0.63005277 
   28000   0.96253297    2.7019797    4.6121817   0.63218287 
   28010    0.9239335    2.7195151    4.4929062   0.63410235 
   28020    0.8700532    2.7253303    4.3644198   0.63582517 
   28030   0.79948523    2.6974009    4.3113811   0.63736682 
   28040   0.71991383    2.6261825    4.3850549   0.63873412 
   28050   0.64062527    2.5551866    4.4491966   0.63992123 
   28060   0.56156689    2.5185928    4.3847979   0.64092359 
   28070   0.48838726    2.4935153    4.2820978   0.64174962 
   28080    0.4251077    2.4577608    4.2293943   0.64241235 
   28090   0.36868765    2.4330335    4.1501013   0.64292081 
   28100   0.31932945    2.4061948    4.0912175    0.6432856 
   28110   0.27994671    2.3624717    4.1066769   0.64351449 
   28120   0.24943025    2.3794803    3.9202271   0.64361043 
   28130   0.22169431    2.4633227     3.505319   0.64359743 
   28140   0.19663564    2.5205134    3.2026439    0.6435221 
   28150   0.17196147    2.5158117    3.1437957   0.64341967 
   28160   0.14817577    2.4783871    3.2242677   0.64329855 
   28170   0.12669866    2.4465224    3.3014355   0.64315082 
   28180   0.10768238     2.439962    3.3008216   0.64296849 
   28190  0.091825877    2.4310332    3.3219905   0.64275098 
   28200  0.076227052    2.3832283    3.4907327   0.64249487 
   28210  0.062083225    2.3096825    3.7568044   0.64218114 
   28220  0.056475631    2.2498797    3.9804876    0.6417804 
   28230  0.054412625    2.2202441    4.0908351   0.64126796 
   28240  0.058066634    2.2096541     4.127661   0.64063162 
   28250  0.068136694    2.2062325    4.1319225   0.63986803 
   28260  0.087340737    2.2260877    4.0505977    0.6389788 
   28270   0.11257889    2.2900012    3.8147542   0.63797603 
   28280   0.14635965    2.3776159    3.5138618    0.6368881 
   28290   0.19099247    2.4472569    3.3098587   0.63574996 
   28300   0.23677737    2.4785886    3.2644621   0.63458576 
   28310   0.28453644     2.494244    3.2941023   0.63340208 
   28320   0.33297061    2.5191333    3.3026651   0.63219674 
   28330   0.38129532    2.5318523    3.3554276   0.63096823 
   28340    0.4268623    2.5249214    3.4675992   0.62971051 
   28350   0.46848198    2.5275369    3.5314287   0.62841191 
   28360   0.50331221    2.5583834    3.4782335   0.62706628 
   28370   0.53905623    2.5917708    3.4090171   0.62567945 
   28380   0.56725694    2.6018037    3.4033262   0.62425951 
   28390   0.59122598    2.5931229    3.4454353   0.62280787 
   28400    0.6097517    2.5849804    3.4627285    0.6213209 
   28410    0.6223805    2.5995078    3.3787479   0.61979812 
   28420   0.62892583    2.6398657    3.1882456   0.61825019 
   28430   0.63120934     2.695931    2.9379976   0.61669968 
   28440   0.62658884    2.7442301    2.7147105   0.61517544 
   28450   0.61617773    2.7610899     2.607272   0.61370263 
   28460   0.59858747    2.7352939    2.6549356    0.6122929 
   28470   0.57187201    2.6620029    2.8682049   0.61093967 
   28480   0.54338677    2.5496979    3.2162289   0.60961717 
   28490   0.51505971    2.4507373    3.5122681    0.6082858 
   28500   0.48843552    2.4119478    3.5932555   0.60691269 
   28510   0.46585056    2.3989347    3.5732228    0.6054877 
   28520   0.44606176    2.3833751     3.543851   0.60401314 
   28530   0.43031809    2.3909048    3.4200398   0.60249443 
   28540   0.41720836    2.4387964    3.1458429   0.60094772 
   28550    0.4077035    2.5006645    2.8212105   0.59940501 
   28560   0.40063235    2.5293171    2.6131196   0.59790287 
   28570   0.39369589    2.5168188    2.5515035   0.59646508 
   28580   0.38553807    2.4910939     2.542586   0.59509896 
   28590   0.37868002    2.4704619    2.5263387   0.59380499 
   28600   0.37022738    2.4515207    2.5078709   0.59258389 
   28610   0.36541662    2.4400505    2.4743851   0.59143677 
   28620   0.36306941    2.4469524    2.3902038   0.59036685 
   28630   0.36163358    2.4626151     2.287221   0.58938252 
   28640   0.36103262    2.4718869    2.2188267   0.58849407 
   28650   0.36087474    2.4641865    2.2225648   0.58770764 
   28660   0.36233936    2.4483093    2.2726373   0.58702148 
   28670   0.36467449    2.4403787    2.3147143   0.58642886 
   28680   0.36823695    2.4237146    2.3970424   0.58592289 
   28690   0.37427415    2.3818468    2.5634686   0.58549201 
   28700   0.38408017    2.3612014    2.6579545    0.5851173 
   28710   0.39510828    2.3704429    2.6504113   0.58478722 
   28720   0.41043722     2.363054     2.699445   0.58450023 
   28730   0.42848024    2.3673938    2.7168662   0.58425093 
   28740   0.44967015    2.4265125    2.5685882   0.58403845 
   28750   0.47157038    2.4777096    2.4546283   0.58387752 
   28760   0.49305716     2.491404    2.4711584   0.58378012 
   28770   0.51434452    2.4897729     2.542825   0.58374441 
   28780   0.53649487     2.503337    2.5658133   0.58376237 
   28790   0.55790724    2.5394642    2.5126223   0.58383104 
   28800   0.57728184    2.5750768    2.4595104   0.58395548 
   28810   0.59409363    2.5854097    2.4894554   0.58414059 
   28820   0.60867385    2.5732912     2.594381   0.58438246 
   28830   0.61984348    2.5535522    2.7220745   0.58466881 
   28840   0.63096535     2.532015    2.8535973   0.58498437 
   28850   0.63899128    2.4930571    3.0293391   0.58531293 
   28860    0.6488083    2.4553431    3.1864146   0.58563401 
   28870   0.65861999    2.4943977     3.077275   0.58593207 
   28880   0.66921794     2.582206    2.7979206   0.58621914 
   28890   0.67673008    2.6381535    2.6165968   0.58652556 
   28900   0.68061882    2.6511694    2.5798113   0.58687229 
   28910   0.68041223    2.6581198    2.5707919   0.58726481 
   28920   0.67594589    2.6724773    2.5416906   0.58770443 
   28930   0.66374037    2.6730233    2.5489784   0.58819382 
   28940   0.64368512    2.6466987    2.6236429   0.58873148 
   28950   0.61786584    2.6229335    2.6643956   0.58930947 
   28960   0.57993804    2.6120846    2.6279714   0.58992333 
   28970    0.5273227    2.5863704    2.6031357   0.59057623 
   28980   0.45649603    2.5452664    2.5913468   0.59127121 
   28990    0.3683418     2.478127    2.6290677   0.59200897 
   29000   0.26661896    2.4175656    2.6231525   0.59278614 
   29010   0.15825365    2.3636108     2.595017   0.59360313 
   29020  0.055095254    2.2750498    2.7079923    0.5944614 
   29030 -0.032176133    2.1729202     2.914515   0.59534802 
   29040  -0.09602387    2.1050358     3.061121   0.59624018 
   29050  -0.13854766    2.0783905    3.1115119    0.5971208 
   29060  -0.16450367    2.0803718    3.0971302    0.5979837 
   29070  -0.17607114    2.0927115    3.0773721   0.59883009 
   29080  -0.17504038    2.0941827    3.1230358   0.59966172 
   29090  -0.16543812     2.073784    3.2629965   0.60047292 
   29100  -0.14453217    2.0683164    3.3710503   0.60124851 
   29110  -0.11663997    2.1103119     3.326545   0.60197709 
   29120 -0.080317576    2.1878746    3.1711546    0.6026637 
   29130 -0.035647794     2.267791    3.0230963   0.60332574 
   29140  0.011432388    2.3220784    2.9753493   0.60398004 
   29150   0.06016019     2.339658    3.0619041   0.60463192 
   29160   0.11138232    2.3412417    3.2029518   0.60527185 
   29170   0.16557502    2.3888819    3.1826316   0.60588546 
   29180   0.21939926    2.4827666    2.9984484   0.60647544 
   29190   0.27051064    2.5376191    2.9417607   0.60706061 
   29200   0.31879476    2.5199496    3.1294202   0.60764661 
   29210   0.36185351    2.4850522    3.3653324   0.60821319 
   29220   0.40257456    2.5091094     3.386909   0.60873534 
   29230   0.44096289    2.5684907     3.266227   0.60920962 
   29240   0.47472998    2.6325265    3.1075441   0.60964957 
   29250   0.50324713    2.6786196    2.9939343   0.61007333 
   29260   0.52489279    2.6850083    3.0021251   0.61049367 
   29270   0.53859668    2.6579899    3.1116907   0.61090982 
   29280   0.55005029    2.6322992    3.2142993   0.61131001 
   29290   0.55519258    2.6132508    3.2875198   0.61168233 
   29300   0.55638854    2.5939854    3.3589347   0.61201789 
   29310   0.55466631    2.5633839    3.4660556   0.61230801 
   29320   0.55215194     2.515204    3.6262671   0.61253985 
   29330   0.54693068    2.4785403    3.7327498   0.61269575 
   29340   0.54181823    2.4642901    3.7475767   0.61276369 
   29350   0.53753806    2.4562352    3.7231524    0.6127414 
   29360   0.53154256    2.4833935    3.5614182   0.61263322 
   29370   0.52633719    2.5469454    3.2692307   0.61245853 
   29380   0.52018367    2.6001976    3.0135688   0.61225038 
   29390   0.50922636    2.6226786    2.8702294   0.61203852 
   29400   0.49232143    2.6111977    2.8543431   0.61183988 
   29410   0.46992372    2.5625143    2.9747598   0.61165605 
   29420   0.44487775    2.5121746    3.1079523   0.61147403 
   29430   0.41265601    2.4799112    3.1705522   0.61127888 
   29440   0.37641826    2.4520715    3.2028196   0.61106262 
   29450   0.33653658    2.4201845    3.2314798   0.61082126 
   29460   0.28972396    2.3765421    3.2791278    0.6105512 
   29470    0.2403786    2.3268362    3.3330375   0.61024696 
   29480   0.18754705    2.2810261    3.3588456   0.60990262 
   29490   0.13323381    2.2414076    3.3532969   0.60951522 
   29500  0.079384131    2.2091035    3.3188454   0.60908551 
   29510   0.02944168    2.1846734    3.2613319   0.60861751 
   29520 -0.015345403    2.1794984    3.1484507   0.60811862 
   29530 -0.056014069    2.1788025    3.0302998   0.60760171 
   29540 -0.088823975    2.1715179    2.9478918   0.60708034 
   29550  -0.11564092    2.1775002    2.8312782   0.60656512 
   29560  -0.13538071    2.2008199     2.667492   0.60606991 
   29570  -0.14847518    2.2267946    2.5077776   0.60561358 
   29580  -0.15387715    2.2458557    2.3921077   0.60521463 
   29590  -0.15129442     2.240902    2.3843866   0.60488603 
   29600  -0.14045964    2.2036265    2.5133961   0.60462814 
   29610  -0.11960871     2.190423    2.5925833   0.60442752 
   29620 -0.087732999      2.22844    2.5330366   0.60427572 
   29630 -0.044682653    2.2833096    2.4516463   0.60417838 
   29640 0.0088841421    2.3445228    2.3886214   0.60414487 
   29650  0.074375488    2.3990352    2.3915264   0.60418209 
   29660   0.14631461    2.4494907    2.4454382   0.60428996 
   29670   0.22343249    2.4935606    2.5531925   0.60446203 
   29680   0.30177292    2.5201374    2.7382558   0.60468524 
   29690   0.37540359    2.5346697    2.9625749   0.60493803 
   29700   0.44649471     2.547271    3.1815197   0.60519419 
   29710   0.51064965    2.5522848    3.3982723   0.60542761 
   29720   0.56432368    2.5481225    3.6100643   0.60561251 
   29730   0.61118701    2.5258508      3.84848   0.60572328 
   29740   0.65187072    2.4942096    4.0788052   0.60573158 
   29750   0.68753022    2.5145726    4.0955322   0.60561239 
   29760   0.71527582    2.5647643      3.96547    0.6053624 
   29770   0.73811859    2.6568494    3.6592724   0.60499761 
   29780   0.75543631    2.7621038    3.2818168   0.60455319 
   29790   0.76293185    2.8340932    2.9945078   0.60407234 
   29800   0.75801983     2.869447    2.8173358   0.60358911 
   29810   0.74154244    2.8681021    2.7596732   0.60312449 
   29820     0.712712    2.8234614    2.8469898   0.60268502 
   29830    0.6765108    2.7307226    3.0994312   0.60226001 
   29840   0.63550324    2.6072309    3.4525773   0.60182013 
   29850   0.59515507    2.5063836    3.7222508   0.60132525 
   29860   0.55801334    2.4618543    3.7917852   0.60074459 
   29870   0.52140187    2.4182019    3.8380006   0.60006793 
   29880   0.48685108    2.3572036    3.9216248   0.59928911 
   29890   0.45859842    2.3386952    3.8479888    0.5984004 
   29900   0.43394887    2.3904024     3.526612   0.59741176 
   29910   0.41400264    2.4616843    3.1392036    0.5963596 
   29920   0.39466445    2.4991639    2.8704161   0.59528822 
   29930   0.37905446     2.507513    2.7161523   0.59422976 
   29940   0.36087599    2.5069219    2.6039823   0.59320346 
   29950   0.34373146    2.5036036    2.5176746    0.5922227 
   29960   0.32646962    2.4932112    2.4703355   0.59129762 
   29970   0.31305453    2.4662662    2.4955174   0.59043343 
   29980   0.29769067    2.4264984    2.5683605   0.58962735 
   29990   0.28672891    2.4136127    2.5613353   0.58887191 
   30000   0.27755031    2.4530271    2.3887332   0.58816889 
Loop time of 4.91732 on 8 procs for 30000 steps with 125 atoms

Performance: 527116.395 tau/day, 6100.884 timesteps/s
90.9% CPU use with 1 MPI tasks x 8 OpenMP threads

MPI task timing breakdown:
Section |  min time  |  avg time  |  max time  |%varavg| %total
---------------------------------------------------------------
Pair    | 1.7261     | 1.7261     | 1.7261     |   0.0 | 35.10
Neigh   | 0.0049682  | 0.0049682  | 0.0049682  |   0.0 |  0.10
Comm    | 0.1416     | 0.1416     | 0.1416     |   0.0 |  2.88
Output  | 0.057187   | 0.057187   | 0.057187   |   0.0 |  1.16
Modify  | 2.9722     | 2.9722     | 2.9722     |   0.0 | 60.44
Other   |            | 0.01527    |            |       |  0.31

Nlocal:        125.000 ave         125 max         125 min
Histogram: 1 0 0 0 0 0 0 0 0 0
Nghost:        1843.00 ave        1843 max        1843 min
Histogram: 1 0 0 0 0 0 0 0 0 0
Neighs:        14276.0 ave       14276 max       14276 min
Histogram: 1 0 0 0 0 0 0 0 0 0

Total # of neighbors = 14276
Ave neighs/atom = 114.20800
Neighbor list builds = 147
Dangerous builds = 0

Averages
--------
Density: 0.595818467734964
Stderr: 0.021935212626774
Temperature: 2.49652239158926
Stderr: 0.180481359991861
Pressure: 3.00850322591539
Stderr: 0.577150510913127
