
### SPECIFY THE NUMBER OF PRODUCTION STEPS ###
variable Nprod equal 30000

### ASSIGN ATOMIC VELOCITIES ###
velocity all create ${T} 12345 dist gaussian rot yes mom yes
velocity all create 2 12345 dist gaussian rot yes mom yes

### SPECIFY ENSEMBLE ###
timestep ${timestep}
timestep 0.001
fix nve all nve

### THERMODYNAMIC OUTPUT CONTROL ###
thermo_style custom time etotal temp press
thermo 10

### RECORD TRAJECTORY ###
dump traj all custom 1000 traj.dump id x y z

### SPECIFY TIMESTEP ###

### RUN SIMULATION TO MELT CRYSTAL ###
run 10000
Last active /omp style is pair_style lj/cut/omp
Neighbor list info ...
  update every 1 steps, delay 10 steps, check yes
  max neighbors/atom: 2000, page size: 100000
  master list distance cutoff = 4.5
  ghost atom cutoff = 4.5
  binsize = 2.25, bins = 3 3 3
  1 neighbor lists, perpetual/occasional/extra = 1 0 0
  (1) pair lj/cut/omp, perpetual
      attributes: half, newton on, omp
      pair build: half/bin/atomonly/newton/omp
      stencil: half/bin/3d/newton
      bin: standard
Per MPI rank memory allocation (min/avg/max) = 10.63 | 10.63 | 10.63 Mbytes
Time TotEng Temp Press 
           0   -2.2887711            2    1.2919632 
        0.01   -2.2887825    1.9532748    1.5517639 
        0.02   -2.2868371    1.8080777    2.3474385 
        0.03    -2.277674    1.5658171    3.6504692 
        0.04   -2.2676331    1.2756255    5.1812618 
        0.05    -2.266884    1.0584406    6.3328558 
        0.06   -2.2656257    1.0039613    6.6888145 
        0.07   -2.2645364    1.0713803    6.4250812 
        0.08   -2.2640561    1.1713436    5.9614334 
        0.09    -2.261443    1.2522302    5.5629092 
         0.1   -2.2610344    1.3099611    5.2626034 
        0.11   -2.2607639    1.3577388    5.0136815 
        0.12   -2.2599718    1.4056685    4.7716466 
        0.13   -2.2593213     1.459786    4.5044472 
        0.14    -2.258019    1.5199299    4.2097075 
        0.15   -2.2577628    1.5816577    3.9013975 
        0.16   -2.2571068    1.6427687    3.5893402 
        0.17   -2.2563257    1.7058961    3.2617541 
        0.18   -2.2560817    1.7689741    2.9309229 
        0.19   -2.2566216    1.8171431    2.6696493 
         0.2   -2.2553185    1.8361976    2.5531768 
        0.21   -2.2546588    1.8261819    2.5828574 
        0.22   -2.2554398    1.7978786    2.7111909 
        0.23    -2.255963    1.7587697     2.905555 
        0.24   -2.2567412    1.7149428     3.133795 
        0.25   -2.2560868    1.6760328    3.3509292 
        0.26   -2.2564908    1.6475086    3.5225227 
        0.27   -2.2553146    1.6247618    3.6658315 
        0.28   -2.2558134    1.6112894    3.7539791 
        0.29   -2.2562102    1.6254193    3.7078039 
         0.3   -2.2571594    1.6616144    3.5562009 
        0.31   -2.2571846    1.6859668    3.4609309 
        0.32   -2.2586076     1.674442    3.5314169 
        0.33   -2.2582943    1.6443516    3.6958834 
        0.34    -2.258056    1.6389159    3.7603206 
        0.35   -2.2592742    1.6430786    3.7906123 
        0.36    -2.258083    1.6195547    3.9589248 
        0.37   -2.2577803    1.5834632     4.187859 
        0.38   -2.2572525    1.5749322    4.2904894 
        0.39   -2.2559774    1.5999937    4.2328913 
         0.4   -2.2549532     1.629698    4.1415986 
        0.41   -2.2549476    1.6448806    4.1044579 
        0.42   -2.2555914    1.6478335    4.1136547 
        0.43   -2.2561123    1.6475642    4.1300898 
        0.44   -2.2559865    1.6475052    4.1399394 
        0.45   -2.2570376    1.6420617    4.1656856 
        0.46   -2.2584527    1.6283425    4.2189826 
        0.47   -2.2577854    1.6254259    4.2168899 
        0.48    -2.259512    1.6445533    4.1050516 
        0.49   -2.2596596     1.660738    4.0085207 
         0.5   -2.2599469    1.6515359    4.0367719 
        0.51    -2.260193    1.5995571     4.272912 
        0.52   -2.2597413    1.5280165    4.6103493 
        0.53   -2.2589786    1.4954701    4.7806582 
        0.54   -2.2614942    1.4954028    4.7968421 
        0.55   -2.2608306    1.4960562     4.805818 
        0.56   -2.2608358    1.4961239    4.8097866 
        0.57   -2.2606828     1.491444    4.8307115 
        0.58   -2.2610669    1.4952051    4.8121229 
        0.59   -2.2618515    1.5116464    4.7359204 
         0.6   -2.2612111    1.5367996    4.6230244 
        0.61    -2.261112    1.5584059    4.5246706 
        0.62   -2.2595171    1.5579533    4.5212314 
        0.63   -2.2579202    1.5602033    4.4947923 
        0.64   -2.2574254    1.5902425    4.3312787 
        0.65   -2.2577005    1.6255485    4.1366809 
        0.66   -2.2575798    1.6439919    4.0213825 
        0.67   -2.2580862     1.633749    4.0400829 
        0.68    -2.257785    1.6094989    4.1245243 
        0.69   -2.2573859    1.6050028    4.1147121 
         0.7    -2.256761    1.6268824      3.97756 
        0.71   -2.2539134    1.6499114    3.8344533 
        0.72   -2.2532538    1.6513579    3.7904032 
        0.73   -2.2546678    1.6372811     3.826658 
        0.74   -2.2553317    1.6266808    3.8666143 
        0.75   -2.2549629    1.6119513    3.9445481 
        0.76   -2.2558626    1.5761461    4.1286907 
        0.77   -2.2559587    1.5365975     4.338011 
        0.78   -2.2537342    1.5268896    4.4174261 
        0.79   -2.2538977     1.551138    4.3389014 
         0.8   -2.2522263    1.5772831    4.2558078 
        0.81   -2.2514432     1.577092    4.2943192 
        0.82   -2.2511455    1.5514423    4.4488681 
        0.83   -2.2511134     1.534247    4.5606427 
        0.84   -2.2507364    1.5575086    4.4829653 
        0.85    -2.251324    1.6040983    4.2947994 
        0.86   -2.2519877    1.6149204    4.2691634 
        0.87   -2.2520781    1.5773072    4.4677247 
        0.88   -2.2529632    1.5289717    4.7134533 
        0.89   -2.2537324    1.5019649    4.8508597 
         0.9   -2.2532145    1.5129361    4.7992833 
        0.91   -2.2529892     1.554501    4.5925088 
        0.92   -2.2531352    1.5914785    4.3980123 
        0.93   -2.2524675    1.6054158    4.3123755 
        0.94   -2.2551872    1.6061964    4.2914647 
        0.95   -2.2551892    1.6107283    4.2700681 
        0.96   -2.2549286    1.6177774    4.2452993 
        0.97    -2.252836    1.6252388     4.225077 
        0.98    -2.251404    1.6351357    4.1946758 
        0.99   -2.2512825    1.6438978    4.1696579 
           1   -2.2516814    1.6432467    4.1892882 
        1.01   -2.2525891    1.6265197    4.2814818 
        1.02   -2.2512469    1.6051414    4.3935016 
        1.03   -2.2524207    1.6144762    4.3571862 
        1.04    -2.252339    1.6540087    4.1855756 
        1.05   -2.2547086    1.6764109     4.093173 
        1.06   -2.2539191    1.6572242    4.2065788 
        1.07    -2.253634    1.6040517    4.4825558 
        1.08   -2.2534756    1.5468098    4.7749931 
        1.09   -2.2543805    1.5181803    4.9230955 
         1.1   -2.2546701    1.5287662    4.8777126 
        1.11   -2.2536736    1.5530579    4.7587467 
        1.12   -2.2535433    1.5507716    4.7485988 
        1.13   -2.2545397    1.5247869    4.8367658 
        1.14   -2.2554359    1.5187348    4.8296769 
        1.15   -2.2542722    1.5524917    4.6394338 
        1.16   -2.2549405    1.6139703    4.3176707 
        1.17   -2.2548296    1.6775943    3.9928476 
        1.18   -2.2544508    1.7157348    3.7969751 
        1.19   -2.2536671    1.7129393      3.80313 
         1.2   -2.2539089    1.6702894    4.0009365 
        1.21   -2.2535023    1.6096309    4.2880501 
        1.22   -2.2553283     1.552253    4.5557777 
        1.23   -2.2562374    1.5075511     4.759003 
        1.24   -2.2553273    1.4801019    4.8741824 
        1.25   -2.2557149    1.4682304    4.9018247 
        1.26   -2.2559577    1.4745787    4.8315894 
        1.27   -2.2560757    1.5124831    4.6050375 
        1.28   -2.2563615    1.5845571    4.2156617 
        1.29   -2.2565262    1.6653612     3.788832 
         1.3   -2.2581124    1.7192473    3.4956157 
        1.31   -2.2594022    1.7252192    3.4422051 
        1.32   -2.2579308    1.6961316    3.5765954 
        1.33   -2.2577919     1.662744    3.7493603 
        1.34   -2.2570146    1.6393675    3.8911564 
        1.35   -2.2570347      1.62097    4.0147978 
        1.36   -2.2555864    1.5923922    4.1829603 
        1.37    -2.256079    1.5648405     4.333202 
        1.38   -2.2577983    1.5587644     4.373509 
        1.39   -2.2567788    1.5565451     4.390211 
         1.4   -2.2559706    1.5387582    4.4664299 
        1.41   -2.2561735    1.5326769    4.4776337 
        1.42   -2.2577739    1.5839083    4.2209275 
        1.43    -2.257049    1.6621966    3.8416692 
        1.44    -2.256136    1.7087228    3.6095551 
        1.45   -2.2540224    1.7149756    3.5755359 
        1.46   -2.2535021    1.7015861    3.6473993 
        1.47   -2.2552198    1.6721275    3.8052343 
        1.48   -2.2555995    1.6153217     4.097156 
        1.49   -2.2567253    1.5486034    4.4314422 
         1.5   -2.2567098    1.5172885    4.5992834 
        1.51   -2.2547752    1.5368396    4.5263591 
        1.52   -2.2545372    1.5812528     4.322139 
        1.53    -2.255192     1.623165    4.1157559 
        1.54   -2.2559617    1.6533389    3.9580111 
        1.55   -2.2545212    1.6770818    3.8374186 
        1.56   -2.2545322    1.6945624    3.7555065 
        1.57   -2.2562402    1.6947314    3.7683612 
        1.58   -2.2561216    1.6649553    3.9409941 
        1.59   -2.2583427    1.5964511    4.3000811 
         1.6   -2.2589248    1.5029994    4.7733967 
        1.61   -2.2574527    1.4582709    5.0187504 
        1.62    -2.257529    1.4925308    4.8911648 
        1.63   -2.2554862    1.5371313    4.7081563 
        1.64     -2.25495    1.5409084    4.7024358 
        1.65   -2.2547689    1.5137465    4.8317903 
        1.66   -2.2525224    1.5040998    4.8746071 
        1.67    -2.252929    1.5393471    4.6935149 
        1.68   -2.2534792    1.6049405    4.3608557 
        1.69   -2.2529777    1.6696737    4.0313936 
         1.7   -2.2536332    1.7077896    3.8301907 
        1.71   -2.2541409    1.7098437    3.8071195 
        1.72   -2.2536053    1.6871671    3.9107032 
        1.73   -2.2545078    1.6551018    4.0620338 
        1.74   -2.2558048     1.626931    4.1972519 
        1.75   -2.2550326    1.6105781    4.2819866 
        1.76   -2.2544009    1.5996301    4.3418877 
        1.77   -2.2540189    1.5777224    4.4514885 
        1.78   -2.2537243    1.5441033    4.6135938 
        1.79   -2.2548905    1.5349261    4.6652607 
         1.8    -2.255849    1.5573542    4.5779433 
        1.81   -2.2551947    1.5731651    4.5258037 
        1.82   -2.2531047    1.5730208    4.5561885 
        1.83   -2.2537565    1.5584889    4.6567398 
        1.84   -2.2533649    1.5287424    4.8316293 
        1.85   -2.2541436    1.4844727    5.0621056 
        1.86   -2.2548991    1.4367379    5.2834995 
        1.87   -2.2551305    1.4178192    5.3379542 
        1.88    -2.256221    1.4520456    5.1137892 
        1.89   -2.2545705    1.4989769     4.809035 
         1.9   -2.2537261    1.5217351    4.5991453 
        1.91   -2.2525442    1.5658517    4.3019197 
        1.92   -2.2529785    1.6364386    3.9027121 
        1.93   -2.2522153    1.6868541      3.62364 
        1.94   -2.2510343    1.6883014    3.5999818 
        1.95   -2.2514015    1.6441212    3.8119094 
        1.96   -2.2528167    1.5799295    4.1344563 
        1.97   -2.2521491    1.5234366    4.4325718 
        1.98   -2.2520081    1.5000842     4.576659 
        1.99   -2.2528186    1.5216966    4.5137038 
           2   -2.2526125    1.5579557    4.3910681 
        2.01   -2.2523473    1.5599825    4.4291603 
        2.02   -2.2521676    1.5332282    4.5965964 
        2.03   -2.2524171    1.5241746    4.6715711 
        2.04    -2.253604    1.5477286    4.5759328 
        2.05   -2.2532228    1.5907418    4.3743563 
        2.06   -2.2525882    1.6349993     4.157056 
        2.07   -2.2527116    1.6607327    4.0207775 
        2.08   -2.2526897    1.6692587    3.9673582 
        2.09   -2.2528198    1.6773752    3.9241375 
         2.1    -2.254014    1.6836009    3.8959883 
        2.11   -2.2542755    1.6725241    3.9527906 
        2.12    -2.252955     1.648606    4.0727015 
        2.13    -2.252047    1.6291857    4.1710759 
        2.14   -2.2515386    1.6120947     4.253474 
        2.15   -2.2517846    1.5875154    4.3588819 
        2.16   -2.2516341    1.5683666    4.4277418 
        2.17   -2.2517701    1.5725585    4.3761757 
        2.18   -2.2513822     1.595815    4.2251691 
        2.19   -2.2508588    1.6296515    4.0195747 
         2.2   -2.2524328    1.6703686    3.7856732 
        2.21   -2.2508822    1.7079889    3.5907461 
        2.22   -2.2518117    1.7219136     3.527792 
        2.23   -2.2524483    1.6983993    3.6635062 
        2.24   -2.2539931    1.6521899    3.9225851 
        2.25   -2.2542548    1.6053973    4.1971692 
        2.26   -2.2543801    1.5647838    4.4409584 
        2.27   -2.2531947    1.5379039    4.6113195 
        2.28   -2.2534704    1.5324103    4.6648911 
        2.29   -2.2544019    1.5366688    4.6550194 
         2.3   -2.2546516    1.5368149    4.6478134 
        2.31   -2.2565783    1.5431411    4.5956304 
        2.32   -2.2565952    1.5773567    4.4121343 
        2.33   -2.2564992    1.6217056    4.1808375 
        2.34   -2.2565021    1.6409024    4.0670695 
        2.35   -2.2553139    1.6280894    4.1083908 
        2.36   -2.2558304    1.5971295    4.2383407 
        2.37     -2.25465    1.5574026    4.4164429 
        2.38   -2.2522643    1.5244821    4.5661831 
        2.39   -2.2517559    1.5333012    4.5244407 
         2.4   -2.2537661    1.5706899    4.3499713 
        2.41   -2.2540441     1.584111    4.2897698 
        2.42   -2.2553325    1.5483793    4.4573149 
        2.43   -2.2550272    1.4804389    4.7774818 
        2.44   -2.2544767    1.4236444    5.0447755 
        2.45   -2.2552605    1.4074792     5.115494 
        2.46   -2.2559175    1.4323093    4.9860523 
        2.47   -2.2572402    1.4878556     4.705447 
        2.48   -2.2572635     1.552939    4.3803287 
        2.49   -2.2574053    1.6029718    4.1273475 
         2.5   -2.2560947    1.6236597    4.0188886 
        2.51   -2.2568494    1.6228205    4.0157287 
        2.52   -2.2550267    1.6256255     4.011112 
        2.53   -2.2560942    1.6290687    4.0050852 
        2.54   -2.2556964    1.6140185     4.084078 
        2.55   -2.2542405    1.5856259    4.2180802 
        2.56    -2.255125    1.5669752    4.2910359 
        2.57    -2.255921    1.5848209    4.1864997 
        2.58   -2.2566231    1.6255139    3.9729753 
        2.59   -2.2563783    1.6450687    3.8590838 
         2.6   -2.2558417     1.625945    3.9295902 
        2.61   -2.2563296    1.5840208    4.1095365 
        2.62   -2.2582641    1.5546187    4.2341334 
        2.63   -2.2572521    1.5565328    4.2233342 
        2.64   -2.2576689    1.5625984    4.1915189 
        2.65   -2.2577956    1.5468931    4.2591223 
        2.66   -2.2572363    1.5147011    4.4009519 
        2.67   -2.2574571    1.5047964    4.4369223 
        2.68   -2.2576333    1.5501456    4.2233976 
        2.69   -2.2578189    1.6098799    3.9514073 
         2.7   -2.2562491    1.6278308    3.8862759 
        2.71   -2.2542471    1.6010731    4.0429627 
        2.72   -2.2552664    1.5692291    4.2326691 
        2.73    -2.255282    1.5590307    4.3328099 
        2.74   -2.2558212    1.5602997    4.3811144 
        2.75   -2.2556947    1.5577942    4.4479114 
        2.76    -2.254942    1.5425275    4.5744474 
        2.77   -2.2541566      1.49306     4.848384 
        2.78   -2.2551191    1.4230037     5.190961 
        2.79   -2.2550835    1.4095256    5.2525108 
         2.8   -2.2547795    1.4811687    4.9102184 
        2.81    -2.255348    1.5584028    4.5342039 
        2.82    -2.255197    1.5820673    4.4115844 
        2.83   -2.2562139    1.5598693    4.5133362 
        2.84   -2.2561968    1.5184635    4.7154203 
        2.85   -2.2568246    1.4826972    4.8886333 
        2.86   -2.2553906    1.4809051    4.9009728 
        2.87    -2.255675    1.5142683    4.7393284 
        2.88    -2.254506    1.5594693    4.5168741 
        2.89   -2.2541276    1.6009887    4.3064707 
         2.9   -2.2526846    1.6260753    4.1720367 
        2.91   -2.2520122    1.6372362     4.100914 
        2.92   -2.2518663    1.6509808    4.0209292 
        2.93   -2.2521545    1.6762449    3.8962261 
        2.94   -2.2529489    1.6900603    3.8331686 
        2.95   -2.2537175    1.6802486    3.8906189 
        2.96    -2.253456    1.6570514    4.0249107 
        2.97   -2.2548794    1.6249174    4.2049506 
        2.98   -2.2557708    1.5998915    4.3531579 
        2.99   -2.2568233    1.6019354    4.3718389 
           3   -2.2555471    1.6221947    4.3021311 
        3.01   -2.2560807    1.6349928    4.2554775 
        3.02   -2.2562034     1.627156      4.29845 
        3.03   -2.2569715    1.6078036    4.3886255 
        3.04   -2.2576191    1.5942366    4.4460893 
        3.05   -2.2573723     1.593626    4.4376973 
        3.06    -2.257237    1.5941413    4.4130612 
        3.07   -2.2572139     1.599557    4.3544485 
        3.08   -2.2570762    1.6285228    4.1786817 
        3.09   -2.2554029    1.6838884    3.8798979 
         3.1   -2.2555584    1.7427682    3.5667122 
        3.11   -2.2550341    1.7788038    3.3738638 
        3.12   -2.2551654    1.7875331    3.3277076 
        3.13   -2.2552904    1.7701148    3.4225682 
        3.14   -2.2554086    1.7341958    3.6151049 
        3.15   -2.2573701    1.6930232    3.8323279 
        3.16   -2.2572401    1.6452395    4.0756651 
        3.17   -2.2564355    1.5960689    4.3107218 
        3.18   -2.2571967    1.5686751    4.4258767 
        3.19   -2.2564176    1.5856658    4.3294327 
         3.2   -2.2558257    1.6378191    4.0740011 
        3.21   -2.2553434    1.6692494    3.9217749 
        3.22   -2.2530897    1.6442966    4.0382095 
        3.23   -2.2542157    1.5954985     4.262675 
        3.24   -2.2522675    1.5708627    4.3791236 
        3.25   -2.2530568    1.5688533    4.3761919 
        3.26   -2.2529301    1.5807892    4.3031743 
        3.27   -2.2545266    1.5943297    4.2221996 
        3.28   -2.2543737     1.584106    4.2579802 
        3.29   -2.2539589    1.5639186    4.3489324 
         3.3   -2.2550115     1.554035    4.3970985 
        3.31   -2.2556466    1.5565264    4.3876355 
        3.32   -2.2550188    1.5842855    4.2633593 
        3.33   -2.2555742    1.6149572    4.1207323 
        3.34   -2.2537145    1.6216582    4.0853505 
        3.35   -2.2529188    1.6296211    4.0422871 
        3.36   -2.2547658     1.648552    3.9478026 
        3.37   -2.2551492    1.6641113    3.8764576 
        3.38   -2.2554085    1.6807961    3.8142654 
        3.39   -2.2552964    1.7011976    3.7557531 
         3.4   -2.2567461    1.7075363    3.7764091 
        3.41   -2.2571146    1.6888612    3.9228217 
        3.42   -2.2569668    1.6658243     4.093872 
        3.43    -2.256607    1.6516583    4.2243547 
        3.44   -2.2571323     1.625197    4.4028839 
        3.45    -2.257648    1.5802841     4.655028 
        3.46    -2.257628     1.526934    4.9281385 
        3.47   -2.2577234    1.4933309    5.0837818 
        3.48   -2.2585335    1.5132529    4.9664258 
        3.49   -2.2584397    1.5644666    4.6837772 
         3.5   -2.2576526    1.6138252    4.4012544 
        3.51   -2.2584659    1.6515009    4.1784211 
        3.52   -2.2584487    1.6558953    4.1205467 
        3.53   -2.2576078    1.6466237    4.1377007 
        3.54   -2.2564614    1.6680164    4.0299793 
        3.55   -2.2559685    1.6946763    3.9061101 
        3.56   -2.2562061    1.6924633    3.9177949 
        3.57   -2.2556584    1.6762643    4.0005926 
        3.58   -2.2557943    1.6671553    4.0540596 
        3.59   -2.2550167    1.6602645    4.0976676 
         3.6   -2.2567114    1.6462201    4.1651679 
        3.61   -2.2564529     1.624808     4.262442 
        3.62   -2.2567128     1.596378    4.3798425 
        3.63    -2.257086    1.5681951    4.4816703 
        3.64   -2.2566876    1.5561445      4.49767 
        3.65   -2.2563003    1.5665549    4.4009819 
        3.66   -2.2569618    1.5949248    4.2167079 
        3.67   -2.2573833    1.6276511    4.0174334 
        3.68    -2.256738    1.6386575    3.9279079 
        3.69   -2.2562019    1.6199461    3.9842336 
         3.7   -2.2554028    1.5869992    4.1148919 
        3.71   -2.2565815    1.5555605    4.2408327 
        3.72   -2.2569648    1.5291209     4.346076 
        3.73   -2.2546011    1.5167434    4.3898871 
        3.74   -2.2566889    1.5307087    4.3027519 
        3.75   -2.2551392    1.5691176    4.1059609 
        3.76   -2.2551625    1.6135292    3.8790985 
        3.77   -2.2569816    1.6402044    3.7349263 
        3.78    -2.257743     1.652313    3.6708548 
        3.79   -2.2570994    1.6623172    3.6352169 
         3.8   -2.2551596    1.6614104    3.6661183 
        3.81   -2.2554081    1.6352133    3.8172175 
        3.82   -2.2544735    1.6001928    4.0148706 
        3.83   -2.2542397    1.5768978     4.159542 
        3.84   -2.2552704    1.5529715    4.2981581 
        3.85   -2.2536913    1.5416712    4.3745656 
        3.86   -2.2535811    1.5537249    4.3327464 
        3.87   -2.2538539     1.571053    4.2563408 
        3.88   -2.2541085    1.5814678    4.2062969 
        3.89   -2.2538411    1.5839026    4.1927511 
         3.9   -2.2539509    1.5855439    4.1827738 
        3.91   -2.2551316    1.6001235    4.1137117 
        3.92   -2.2546203    1.6210202    4.0186353 
        3.93   -2.2555315    1.6354878    3.9495506 
        3.94   -2.2555258    1.6447444    3.9071776 
        3.95   -2.2546247    1.6526368    3.8776972 
        3.96    -2.255167    1.6486267    3.9060433 
        3.97   -2.2546311    1.6191947    4.0531342 
        3.98   -2.2553836    1.5819273    4.2308374 
        3.99   -2.2548668    1.5649815    4.3117012 
           4   -2.2565648    1.5693514      4.28199 
        4.01    -2.257222    1.5935578    4.1588709 
        4.02    -2.256464    1.6276191    3.9988657 
        4.03   -2.2577834    1.6449329     3.926069 
        4.04    -2.256613    1.6291762    4.0258335 
        4.05   -2.2560354    1.5890304    4.2483735 
        4.06   -2.2548743    1.5774491    4.3526124 
        4.07    -2.254409    1.5850368    4.3698906 
        4.08   -2.2543684    1.5613928    4.5157258 
        4.09   -2.2539328    1.5343031    4.6620595 
         4.1   -2.2536822    1.5425206    4.6293659 
        4.11   -2.2561866    1.5797674    4.4412148 
        4.12   -2.2560601    1.6246682    4.2109604 
        4.13   -2.2550291    1.6666304    3.9987651 
        4.14   -2.2550478    1.6895355    3.8859286 
        4.15   -2.2553077    1.6754627    3.9576238 
        4.16   -2.2546226    1.6259309    4.2028142 
        4.17   -2.2542002    1.5723971    4.4683219 
        4.18   -2.2529021    1.5438146     4.618079 
        4.19    -2.253566    1.5359965    4.6619262 
         4.2    -2.252914    1.5382827    4.6544929 
        4.21   -2.2542121    1.5489002    4.6028892 
        4.22    -2.253834    1.5701903    4.5080504 
        4.23   -2.2543838    1.5872861    4.4355635 
        4.24   -2.2556754    1.5762792    4.4898109 
        4.25   -2.2543334    1.5506629    4.6093851 
        4.26   -2.2526314    1.5439407    4.6327021 
        4.27   -2.2530249    1.5654048    4.5094288 
        4.28   -2.2516079    1.6090522    4.2788165 
        4.29   -2.2517707    1.6517615    4.0519269 
         4.3   -2.2519041    1.6603829    3.9898476 
        4.31   -2.2513477    1.6315928    4.1119943 
        4.32   -2.2515766    1.5987862    4.2629624 
        4.33   -2.2522273    1.5938707    4.2938294 
        4.34   -2.2509451    1.6186582    4.1949885 
        4.35   -2.2503087    1.6518522    4.0551028 
        4.36   -2.2493957    1.6738221    3.9645735 
        4.37   -2.2509628    1.6771897    3.9542223 
        4.38   -2.2529142    1.6599192    4.0357479 
        4.39    -2.254332    1.6316288     4.164067 
         4.4   -2.2532859    1.6110957    4.2542255 
        4.41   -2.2542128    1.6037277    4.2718703 
        4.42    -2.254869    1.6003898    4.2601572 
        4.43   -2.2557699    1.6022974    4.2129356 
        4.44   -2.2570771    1.6208759    4.0816607 
        4.45   -2.2556483    1.6546689    3.8843501 
        4.46   -2.2555243     1.694434    3.6653603 
        4.47   -2.2546295    1.7281263    3.4909766 
        4.48   -2.2553067    1.7379247    3.4434116 
        4.49   -2.2553174    1.7034903    3.6168409 
         4.5     -2.25436    1.6259359    3.9949894 
        4.51    -2.255214    1.5585134    4.3178715 
        4.52   -2.2556269    1.5593654    4.3193678 
        4.53   -2.2560634    1.6094997    4.0863164 
        4.54    -2.255433    1.6571657    3.8650678 
        4.55   -2.2567435    1.6714875    3.8010443 
        4.56   -2.2561993    1.6460356    3.9292239 
        4.57   -2.2557797    1.6058625    4.1264401 
        4.58   -2.2559031     1.583132     4.240164 
        4.59   -2.2548768    1.5856861    4.2362703 
         4.6   -2.2552903     1.594264      4.20144 
        4.61   -2.2551517     1.585786    4.2473392 
        4.62   -2.2532997    1.5636589     4.361418 
        4.63   -2.2536965    1.5469744    4.4480016 
        4.64   -2.2530561    1.5362105     4.503258 
        4.65   -2.2521446    1.5244962    4.5512807 
        4.66   -2.2520005    1.5159562    4.5694549 
        4.67   -2.2522447    1.5289607     4.477946 
        4.68   -2.2526583    1.5752056    4.2320647 
        4.69   -2.2507085    1.6310218      3.94949 
         4.7   -2.2499208    1.6784699     3.714395 
        4.71   -2.2518946    1.7103234     3.566149 
        4.72   -2.2525594     1.709591    3.5931458 
        4.73   -2.2537326    1.6653194    3.8417476 
        4.74   -2.2532009    1.5839105    4.2765347 
        4.75   -2.2519829    1.4890743    4.7686772 
        4.76   -2.2519604    1.4332574    5.0630784 
        4.77   -2.2525512    1.4396422    5.0513863 
        4.78   -2.2528153    1.4578041    4.9585301 
        4.79   -2.2522465    1.4803416    4.8242381 
         4.8   -2.2530679    1.5363934    4.5267735 
        4.81   -2.2537542    1.5939384    4.2215139 
        4.82   -2.2547859    1.6180226    4.0737223 
        4.83   -2.2559316    1.6185193    4.0432083 
        4.84   -2.2551458    1.6241904    4.0008455 
        4.85    -2.254258    1.6446996    3.8958983 
        4.86   -2.2566117    1.6599902    3.8103647 
        4.87   -2.2565719    1.6673763    3.7673677 
        4.88   -2.2559462    1.6888656    3.6725276 
        4.89   -2.2562218    1.6980532    3.6416241 
         4.9   -2.2552717    1.6761716    3.7567455 
        4.91   -2.2538036    1.6517888    3.8794418 
        4.92   -2.2542042    1.6538516    3.8672532 
        4.93   -2.2529195    1.6742704    3.7614273 
        4.94   -2.2535731    1.6925319    3.6579318 
        4.95   -2.2523951    1.7023092    3.6044592 
        4.96   -2.2527929    1.7029485    3.6075036 
        4.97   -2.2526662    1.6881108    3.6995077 
        4.98   -2.2520038    1.6547872    3.8863398 
        4.99    -2.251209    1.6165959    4.0943926 
           5   -2.2508205    1.5883841    4.2440129 
        5.01   -2.2509429    1.5750248    4.3057293 
        5.02   -2.2519948    1.5857157    4.2429684 
        5.03   -2.2522808    1.6153288    4.0949598 
        5.04    -2.253081    1.6365352    3.9935956 
        5.05   -2.2539793    1.6300246    4.0291457 
        5.06   -2.2547496    1.6063172    4.1517478 
        5.07   -2.2564376    1.5767219    4.3007373 
        5.08   -2.2557659    1.5559684    4.4084758 
        5.09   -2.2552508    1.5618296    4.3896947 
         5.1   -2.2533178    1.5886878    4.2735558 
        5.11   -2.2538475    1.6133607    4.1591616 
        5.12   -2.2546097    1.6277868     4.086363 
        5.13   -2.2553972    1.6432276    4.0055391 
        5.14    -2.255145    1.6558302    3.9370078 
        5.15   -2.2559353    1.6560714    3.9246708 
        5.16   -2.2548968    1.6357995    4.0148253 
        5.17   -2.2542287    1.5939694    4.2104039 
        5.18   -2.2547571    1.5481735    4.4291736 
        5.19   -2.2547451    1.5031155    4.6399407 
         5.2   -2.2537552    1.4903996    4.6872145 
        5.21   -2.2534348    1.5698752    4.3014232 
        5.22   -2.2537512    1.6826746    3.7515631 
        5.23   -2.2527131    1.7583213    3.3758678 
        5.24   -2.2519152    1.7757123    3.2849449 
        5.25   -2.2512304    1.7464779    3.4316672 
        5.26    -2.252632    1.7028019    3.6619091 
        5.27   -2.2513348    1.6743374    3.8408491 
        5.28   -2.2516172    1.6565582     3.973802 
        5.29   -2.2527869    1.6326843     4.131835 
         5.3   -2.2525019    1.6110227    4.2774971 
        5.31   -2.2523846     1.612059    4.3135172 
        5.32   -2.2529334     1.626004    4.2815038 
        5.33   -2.2517678    1.6262788    4.3058384 
        5.34   -2.2516204    1.6057377    4.4158298 
        5.35   -2.2511851    1.5876095    4.5066653 
        5.36   -2.2502982    1.6092993    4.4103409 
        5.37    -2.252155    1.6471777    4.2279296 
        5.38   -2.2518944    1.6624645    4.1468332 
        5.39   -2.2503162     1.648078    4.2036629 
         5.4    -2.250818     1.614582    4.3455237 
        5.41   -2.2509412    1.5814817    4.4852608 
        5.42   -2.2496412    1.5599455    4.5687841 
        5.43    -2.249252    1.5503347     4.585531 
        5.44   -2.2518635    1.5551152    4.5200685 
        5.45    -2.253171    1.5749048    4.3803087 
        5.46   -2.2529149    1.6072897    4.1858096 
        5.47   -2.2534744    1.6421672     3.989283 
        5.48   -2.2543935     1.648652    3.9357243 
        5.49   -2.2540924    1.6266861    4.0290115 
         5.5   -2.2534311    1.6123765     4.103142 
        5.51   -2.2526543    1.6178517    4.0962477 
        5.52   -2.2529215    1.6341959    4.0421904 
        5.53    -2.252516    1.6516122    3.9866377 
        5.54   -2.2534357    1.6740695    3.9119695 
        5.55   -2.2530624    1.6938306    3.8612194 
        5.56   -2.2533278    1.6929629    3.9147241 
        5.57   -2.2530595    1.6663031     4.096811 
        5.58   -2.2523925    1.6240033    4.3546258 
        5.59   -2.2527695    1.5837307     4.595193 
         5.6   -2.2509427    1.5646369    4.7296938 
        5.61   -2.2522859    1.5666477       4.7492 
        5.62   -2.2529453    1.5599276    4.7938492 
        5.63   -2.2532971    1.5415893    4.8758218 
        5.64   -2.2514675    1.5462076    4.8445613 
        5.65    -2.251754    1.5787043    4.6750017 
        5.66   -2.2525533    1.6178184    4.4764161 
        5.67   -2.2527195    1.6408435    4.3664537 
        5.68   -2.2519271    1.6179759    4.4815366 
        5.69   -2.2522736    1.5576878    4.7717062 
         5.7   -2.2531482    1.5077141     5.010043 
        5.71   -2.2526401    1.5073395    5.0130575 
        5.72   -2.2521448    1.5460504    4.8217012 
        5.73   -2.2513628     1.594425    4.5722166 
        5.74   -2.2517607    1.6373582    4.3385105 
        5.75   -2.2521504    1.6648174    4.1743479 
        5.76   -2.2525288     1.675943     4.088189 
        5.77   -2.2534347    1.6805505    4.0382688 
        5.78    -2.254886    1.6839935    4.0037132 
        5.79   -2.2542633     1.673429    4.0491956 
         5.8    -2.254393    1.6320751     4.244198 
        5.81   -2.2538378    1.5705598    4.5341612 
        5.82   -2.2548571    1.5355338    4.6944138 
        5.83   -2.2550313    1.5536271    4.6036434 
        5.84   -2.2557139    1.5897485     4.419678 
        5.85   -2.2561032     1.609622    4.3076143 
        5.86   -2.2567363    1.6053294    4.3081887 
        5.87   -2.2567227    1.5882568    4.3708112 
        5.88   -2.2565856     1.569592    4.4388224 
        5.89   -2.2577546    1.5580979    4.4660163 
         5.9   -2.2574756    1.5646066    4.4065454 
        5.91     -2.25723    1.6033179    4.1984583 
        5.92   -2.2577905    1.6585194    3.9179312 
        5.93   -2.2561102    1.6930095    3.7443506 
        5.94   -2.2575318    1.6899551    3.7489547 
        5.95   -2.2560806    1.6628951    3.8776357 
        5.96   -2.2552929    1.6330837     4.020544 
        5.97   -2.2564681    1.6115828    4.1170223 
        5.98   -2.2561953    1.6064699    4.1335011 
        5.99   -2.2568873    1.6198053    4.0634997 
           6     -2.25543    1.6218246    4.0503265 
        6.01   -2.2565932    1.6226311    4.0496585 
        6.02   -2.2561034    1.6278731    4.0465078 
        6.03   -2.2551861    1.6114425    4.1523992 
        6.04   -2.2550416    1.5755566    4.3510413 
        6.05   -2.2550436    1.5348924    4.5679614 
        6.06   -2.2567165    1.4988316     4.744409 
        6.07   -2.2564357    1.4976153    4.7442351 
        6.08   -2.2558366    1.5426052    4.5176592 
        6.09   -2.2574155    1.5879651    4.2726262 
         6.1   -2.2584424    1.6104263    4.1281417 
        6.11   -2.2570057    1.6156935    4.0688313 
        6.12   -2.2563305    1.6063529    4.0774722 
        6.13   -2.2576141    1.6049054    4.0509696 
        6.14   -2.2560799    1.6283298    3.9243654 
        6.15   -2.2553249    1.6485897    3.8228525 
        6.16   -2.2551778    1.6373135    3.8784661 
        6.17   -2.2559571    1.6067483     4.036065 
        6.18   -2.2562109    1.5684702    4.2368053 
        6.19   -2.2552614    1.5395942    4.3940651 
         6.2   -2.2543399     1.554503    4.3493424 
        6.21   -2.2533438     1.618009    4.0886723 
        6.22   -2.2530004    1.6788006    3.8519512 
        6.23   -2.2517029    1.6862773    3.8773965 
        6.24   -2.2516672    1.6322208    4.1946305 
        6.25   -2.2515998    1.5596196    4.5974228 
        6.26   -2.2508365    1.5309276    4.7935762 
        6.27   -2.2510191    1.5356436    4.8185697 
        6.28   -2.2510104    1.5290186    4.8714165 
        6.29   -2.2525391    1.5159283    4.9268267 
         6.3   -2.2529195    1.5306444    4.8351769 
        6.31   -2.2521421    1.5850775    4.5468045 
        6.32    -2.252704    1.6674561    4.1235661 
        6.33   -2.2529907    1.7340677    3.7783518 
        6.34   -2.2545415    1.7547836    3.6540671 
        6.35   -2.2536085    1.7419188    3.7046031 
        6.36   -2.2532054    1.7166166    3.8243664 
        6.37   -2.2547744    1.6918858    3.9441896 
        6.38   -2.2539818    1.6690109    4.0581147 
        6.39   -2.2530679    1.6573003    4.1193729 
         6.4   -2.2534871     1.656499    4.1276657 
        6.41   -2.2532038    1.6475157    4.1699213 
        6.42   -2.2546244    1.6447885    4.1791919 
        6.43   -2.2542661     1.656093    4.1288587 
        6.44   -2.2537474    1.6523131    4.1471783 
        6.45   -2.2551699    1.6245193    4.2710886 
        6.46   -2.2548866    1.5873304    4.4366684 
        6.47   -2.2530386    1.5655902    4.5262065 
        6.48   -2.2520107    1.5765889    4.4564803 
        6.49   -2.2529531    1.6044728    4.2987383 
         6.5   -2.2524351      1.62081    4.1900702 
        6.51   -2.2543864     1.618644    4.1596666 
        6.52   -2.2531968    1.6071082    4.1782038 
        6.53   -2.2533281    1.6009188    4.1777667 
        6.54   -2.2536243    1.5980422    4.1754297 
        6.55   -2.2525908     1.572804    4.2898503 
        6.56   -2.2533356    1.5223441    4.5231003 
        6.57    -2.251594    1.4895044    4.6792146 
        6.58    -2.252656    1.5162285    4.5530152 
        6.59   -2.2542788    1.5810796    4.2431423 
         6.6   -2.2545421      1.62691    4.0138983 
        6.61   -2.2536157    1.6399589    3.9359192 
        6.62   -2.2545367    1.6263159    3.9799199 
        6.63   -2.2541256    1.5886714    4.1336426 
        6.64   -2.2539517    1.5582651    4.2507641 
        6.65   -2.2542624     1.570183    4.1773331 
        6.66   -2.2545467    1.5881969    4.0775857 
        6.67   -2.2551815    1.5866721    4.0702695 
        6.68    -2.255037    1.5771214    4.1084822 
        6.69   -2.2545002    1.5757794    4.1167796 
         6.7   -2.2550387    1.5905047    4.0555404 
        6.71   -2.2566241    1.6083473    3.9818797 
        6.72   -2.2551817    1.6115223    3.9803791 
        6.73   -2.2556843    1.6052542    4.0170231 
        6.74   -2.2552837    1.6074895    4.0113684 
        6.75   -2.2558019    1.6301203    3.9046616 
        6.76   -2.2554273    1.6758171    3.6914492 
        6.77   -2.2567481    1.7293974    3.4441152 
        6.78   -2.2566396    1.7702132    3.2730745 
        6.79   -2.2565375    1.7727162    3.3012101 
         6.8   -2.2570351    1.7173752    3.6138145 
        6.81   -2.2561976    1.6320568    4.0759317 
        6.82   -2.2544924     1.574035    4.4112534 
        6.83   -2.2543934    1.5611775     4.518505 
        6.84   -2.2545479     1.567198    4.5103976 
        6.85   -2.2541445    1.5691944    4.4940232 
        6.86   -2.2529596    1.5756578    4.4402335 
        6.87   -2.2537406    1.5964858    4.3076945 
        6.88   -2.2553174    1.6285886     4.120479 
        6.89   -2.2553339    1.6581856    3.9543162 
         6.9   -2.2549509    1.6663938    3.9000364 
        6.91   -2.2546583    1.6509657    3.9695211 
        6.92     -2.25452    1.6406877     4.034011 
        6.93    -2.254018    1.6426093    4.0593162 
        6.94   -2.2525982    1.6348258    4.1399255 
        6.95   -2.2532394    1.6035013    4.3263906 
        6.96   -2.2522768    1.5641373    4.5431552 
        6.97   -2.2518912    1.5596471    4.5863108 
        6.98   -2.2528516    1.5855264    4.4728746 
        6.99   -2.2519428     1.597493    4.4119624 
           7   -2.2515302    1.5823486    4.4673343 
        7.01   -2.2522817    1.5579581    4.5598386 
        7.02   -2.2538443    1.5532237    4.5593646 
        7.03   -2.2526912    1.5718034     4.454382 
        7.04   -2.2533496    1.5954396    4.3228228 
        7.05   -2.2532262    1.6162988    4.2130255 
        7.06   -2.2529828    1.6262287    4.1700785 
        7.07    -2.253268    1.6093386     4.270211 
        7.08   -2.2532761    1.5488373    4.5869419 
        7.09   -2.2533379    1.4557461    5.0566112 
         7.1   -2.2539581    1.4050077    5.3308859 
        7.11    -2.254045    1.4264839    5.2713742 
        7.12    -2.253009    1.4505547    5.1852859 
        7.13   -2.2544008    1.4596158    5.1501998 
        7.14   -2.2550629    1.4834605     5.043718 
        7.15   -2.2543149    1.5152922    4.9021527 
        7.16   -2.2548263    1.5267254    4.8537739 
        7.17    -2.255866    1.5237249    4.8773546 
        7.18   -2.2550659    1.5131689    4.9389627 
        7.19   -2.2551754    1.5107959    4.9534555 
         7.2   -2.2566348    1.5321968    4.8456763 
        7.21    -2.256645     1.558023    4.7074676 
        7.22    -2.256497    1.5780285    4.5896698 
        7.23   -2.2552067    1.6021732    4.4581866 
        7.24   -2.2545858    1.6161721    4.3769518 
        7.25   -2.2541669    1.5975905     4.441136 
        7.26   -2.2526745    1.5782691    4.5016855 
        7.27   -2.2533678    1.6049797    4.3404701 
        7.28   -2.2547076    1.6472735    4.0971072 
        7.29   -2.2533894    1.6668241    3.9575863 
         7.3   -2.2536254     1.667493    3.9055145 
        7.31   -2.2542614    1.6695395    3.8530253 
        7.32    -2.254791    1.6865098    3.7416049 
        7.33   -2.2532542    1.7102293    3.6162801 
        7.34   -2.2544391    1.7146393    3.5898853 
        7.35   -2.2540262     1.690251    3.7103403 
        7.36   -2.2553134      1.65873    3.8698205 
        7.37    -2.256753    1.6397533    3.9762753 
        7.38   -2.2565025    1.6301038    4.0428469 
        7.39   -2.2571506    1.6204317    4.1075908 
         7.4   -2.2549232    1.6159798    4.1577023 
        7.41   -2.2550796    1.6200026    4.1761127 
        7.42   -2.2565426    1.6084871    4.2728504 
        7.43    -2.257965    1.5592109     4.542103 
        7.44   -2.2590776    1.4948345    4.8688968 
        7.45    -2.259593     1.477214    4.9665749 
        7.46   -2.2603082    1.5132145    4.8003373 
        7.47   -2.2599346    1.5484867    4.6206495 
        7.48   -2.2589955    1.5606938    4.5360601 
        7.49   -2.2593416    1.5726311    4.4447202 
         7.5   -2.2584441    1.6206129    4.1898293 
        7.51   -2.2580904    1.6876326    3.8476063 
        7.52   -2.2569261    1.7313243    3.6187238 
        7.53   -2.2567908    1.7353285    3.5847155 
        7.54   -2.2578169    1.7032858    3.7325242 
        7.55   -2.2588352    1.6535436     3.976287 
        7.56   -2.2563558    1.6105404    4.2036068 
        7.57   -2.2555856    1.5778562    4.3810165 
        7.58   -2.2547901    1.5476795     4.538092 
        7.59   -2.2537252    1.5317874    4.6173358 
         7.6   -2.2533496    1.5470254    4.5413023 
        7.61   -2.2529843    1.5811901    4.3707057 
        7.62   -2.2548377    1.6057174     4.239899 
        7.63   -2.2536652    1.5978231    4.2651773 
        7.64   -2.2544137    1.5609261    4.4192316 
        7.65    -2.254655    1.5291372    4.5445732 
        7.66   -2.2536198    1.5245182    4.5376542 
        7.67   -2.2538997    1.5387063     4.433687 
        7.68   -2.2542907    1.5524362     4.329387 
        7.69   -2.2545419    1.5624015    4.2501724 
         7.7   -2.2558568    1.5741652     4.176638 
        7.71    -2.255868     1.579393     4.152262 
        7.72   -2.2544348    1.5668607    4.2266673 
        7.73   -2.2533749    1.5376127    4.3870299 
        7.74    -2.253896     1.506769     4.555297 
        7.75   -2.2545459    1.4812286    4.6916443 
        7.76     -2.25662    1.4681486    4.7524673 
        7.77   -2.2555669    1.4835149    4.6706872 
        7.78   -2.2553396    1.5300945    4.4332827 
        7.79   -2.2556262    1.5721674    4.2089854 
         7.8   -2.2557344    1.5802189    4.1383935 
        7.81   -2.2555586    1.5744911    4.1349632 
        7.82    -2.255297    1.5947599    4.0212791 
        7.83   -2.2554719    1.6399999    3.8028683 
        7.84   -2.2554823    1.6697304    3.6649554 
        7.85    -2.257154    1.6689122     3.675431 
        7.86   -2.2570159    1.6538764    3.7669123 
        7.87   -2.2567544    1.6320327    3.8991513 
        7.88   -2.2555654    1.6051755    4.0603411 
        7.89   -2.2545128    1.5858015    4.1889171 
         7.9   -2.2539959    1.5805752    4.2507455 
        7.91   -2.2532216    1.5842935    4.2693455 
        7.92   -2.2525811    1.5856647    4.2950644 
        7.93   -2.2524379    1.5759318    4.3644122 
        7.94   -2.2530706    1.5674688    4.4171925 
        7.95   -2.2550302    1.5803269    4.3581797 
        7.96    -2.254653     1.614359    4.1924281 
        7.97   -2.2549364    1.6537983    3.9916004 
        7.98   -2.2544205    1.6766832    3.8654242 
        7.99   -2.2543994    1.6769667    3.8469827 
           8    -2.253215    1.6750213    3.8543428 
        8.01   -2.2532586    1.6795804    3.8489434 
        8.02   -2.2533926    1.6608638    3.9634124 
        8.03     -2.25478     1.620684    4.1836816 
        8.04   -2.2533435    1.5999981    4.3282608 
        8.05   -2.2527221    1.6016173    4.3712295 
        8.06   -2.2513009    1.5980304    4.4346061 
        8.07   -2.2516877    1.5759746    4.5743913 
        8.08   -2.2512919    1.5459193    4.7463173 
        8.09   -2.2518013    1.5226234    4.8734763 
         8.1   -2.2507535     1.528295    4.8524366 
        8.11   -2.2506396    1.5677719    4.6581619 
        8.12   -2.2517064    1.6173595    4.4083494 
        8.13    -2.250802    1.6469852    4.2584269 
        8.14   -2.2519525    1.6443098    4.2656695 
        8.15   -2.2516802    1.6265079    4.3576001 
        8.16   -2.2517943    1.6052916      4.46874 
        8.17   -2.2537482    1.5942978    4.5281974 
        8.18   -2.2545546     1.595466    4.5317895 
        8.19   -2.2552186    1.5892393    4.5679611 
         8.2    -2.255203     1.564902    4.6847767 
        8.21   -2.2549168    1.5401178     4.796143 
        8.22   -2.2542621    1.5436814    4.7663558 
        8.23   -2.2539086    1.5792614    4.5776598 
        8.24   -2.2548719    1.6117753    4.3941564 
        8.25   -2.2561578    1.6006416    4.4080419 
        8.26   -2.2549215    1.5669883    4.5346924 
        8.27   -2.2540195     1.563462    4.5344097 
        8.28   -2.2523476    1.5850743    4.4244761 
        8.29   -2.2524751    1.6071944     4.308462 
         8.3   -2.2529997    1.6222148    4.2276351 
        8.31   -2.2540474    1.6266085    4.2059875 
        8.32   -2.2544378    1.6169056    4.2681923 
        8.33   -2.2549565    1.5941101    4.4102985 
        8.34   -2.2549487    1.5640025    4.6013574 
        8.35   -2.2553319     1.537982    4.7773785 
        8.36   -2.2528659    1.5254227    4.8907457 
        8.37   -2.2530039    1.5191676    4.9586898 
        8.38   -2.2530018    1.5110043    5.0209118 
        8.39   -2.2536478    1.5033727    5.0644865 
         8.4   -2.2539115    1.5025008    5.0616788 
        8.41   -2.2539298    1.5070059     5.018242 
        8.42   -2.2543139    1.5051423    4.9862068 
        8.43   -2.2525784    1.5064546     4.928354 
        8.44   -2.2545293    1.5431415    4.6960592 
        8.45   -2.2526065    1.6181154    4.2964473 
        8.46   -2.2531578    1.6929804    3.9022491 
        8.47   -2.2536718    1.7332016    3.6832768 
        8.48   -2.2540526    1.7389699    3.6464051 
        8.49   -2.2551011    1.7182893      3.75488 
         8.5   -2.2534014    1.6698042    4.0124395 
        8.51   -2.2518156    1.5994404    4.3741498 
        8.52   -2.2524457    1.5316393    4.7108543 
        8.53    -2.253206    1.4971621    4.8750441 
        8.54     -2.25349    1.5203934     4.759065 
        8.55   -2.2541985    1.5803445    4.4683518 
        8.56   -2.2544896    1.6198074    4.2766322 
        8.57   -2.2533064    1.6029822    4.3558008 
        8.58   -2.2539056    1.5416663    4.6445139 
        8.59   -2.2540193    1.4870331    4.9066078 
         8.6   -2.2535084    1.4618771    5.0273311 
        8.61   -2.2517951    1.4611661     5.021821 
        8.62   -2.2511339    1.4946419    4.8450872 
        8.63   -2.2499911    1.5609929    4.5155461 
        8.64    -2.251855    1.6225999    4.2095807 
        8.65   -2.2536884    1.6418264    4.1132507 
        8.66   -2.2537995     1.612835    4.2598963 
        8.67   -2.2532454     1.557714    4.5415693 
        8.68   -2.2534863    1.5133479    4.7772175 
        8.69   -2.2527151    1.4999178    4.8665585 
         8.7   -2.2507631    1.5093063    4.8384947 
        8.71   -2.2493301    1.5333689    4.7269708 
        8.72   -2.2490737    1.5665246     4.560501 
        8.73   -2.2486762    1.6017516    4.3788395 
        8.74   -2.2506325    1.6383692    4.1889114 
        8.75   -2.2514258    1.6754775    4.0086838 
        8.76   -2.2506661    1.7010515    3.9009037 
        8.77   -2.2509484    1.6918433    3.9694674 
        8.78   -2.2510731    1.6318506    4.2811429 
        8.79   -2.2520417    1.5452585    4.7062204 
         8.8   -2.2513639    1.5102813    4.8810273 
        8.81   -2.2515736    1.5516032    4.6873681 
        8.82   -2.2514923    1.5956403    4.4672622 
        8.83   -2.2521209    1.5879493    4.4795452 
        8.84   -2.2523218    1.5477275    4.6467084 
        8.85   -2.2514001    1.5279011     4.730013 
        8.86   -2.2515696    1.5384328    4.6761958 
        8.87   -2.2508044    1.5446655    4.6410186 
        8.88   -2.2515859    1.5264462    4.7109277 
        8.89   -2.2515636    1.4878053    4.8686278 
         8.9   -2.2517772    1.4574546    4.9799548 
        8.91   -2.2523372    1.4732403    4.8778022 
        8.92    -2.251847    1.5061447    4.6956497 
        8.93   -2.2522346     1.521629    4.5894242 
        8.94   -2.2519449    1.5250272    4.5426862 
        8.95   -2.2514187     1.542124    4.4439899 
        8.96   -2.2515791    1.5744002    4.2895342 
        8.97    -2.250548    1.5958104    4.2020163 
        8.98   -2.2510609    1.5937703    4.2326955 
        8.99   -2.2520661     1.585745    4.2967792 
           9   -2.2533944    1.6043433    4.2406339 
        9.01   -2.2526222    1.6347469    4.1282964 
        9.02   -2.2537919    1.6602788    4.0304194 
        9.03   -2.2543237    1.6796237    3.9637023 
        9.04   -2.2544667    1.6821137    3.9800795 
        9.05    -2.254723    1.6606284    4.1119051 
        9.06   -2.2564211    1.6222381     4.321839 
        9.07   -2.2577325    1.5714614    4.5828111 
        9.08   -2.2579648    1.5140164    4.8562824 
        9.09   -2.2580659    1.4833803    4.9804631 
         9.1    -2.257587    1.5084327     4.827682 
        9.11   -2.2597142    1.5544806    4.5587562 
        9.12   -2.2587776    1.5818057    4.3775698 
        9.13   -2.2575814    1.5998487    4.2527176 
        9.14   -2.2562901    1.6213885    4.1331465 
        9.15   -2.2560454    1.6305372    4.0886331 
        9.16   -2.2573529    1.6108334    4.1912653 
        9.17   -2.2579798    1.5644251    4.4287999 
        9.18   -2.2585985    1.5198093    4.6594371 
        9.19   -2.2589863    1.5117494    4.7143389 
         9.2    -2.258748    1.5450326    4.5660622 
        9.21   -2.2581268    1.5960511    4.3235572 
        9.22   -2.2574914     1.633313    4.1370868 
        9.23   -2.2569577    1.6391026    4.0952251 
        9.24   -2.2548444    1.6220336    4.1674444 
        9.25   -2.2556195     1.604087     4.250605 
        9.26   -2.2552433    1.5955866    4.3061689 
        9.27   -2.2556391    1.5846582    4.3825675 
        9.28   -2.2545845     1.564813    4.5080052 
        9.29    -2.252759    1.5428969      4.64473 
         9.3    -2.251833    1.5234609    4.7628321 
        9.31   -2.2527339    1.5198501    4.7975106 
        9.32   -2.2543223    1.5434927    4.7017817 
        9.33   -2.2529105    1.5760879    4.5703634 
        9.34   -2.2535799    1.5884553    4.5367332 
        9.35    -2.253319    1.5639024    4.6875363 
        9.36   -2.2535563    1.5081093    4.9903771 
        9.37    -2.254431    1.4535256    5.2846634 
        9.38   -2.2549419      1.44368    5.3624553 
        9.39   -2.2557754    1.4876839    5.1766216 
         9.4   -2.2554025    1.5391815    4.9395717 
        9.41   -2.2563279    1.5668918    4.7994307 
        9.42   -2.2550371    1.5519242    4.8534708 
        9.43   -2.2542034    1.4893806    5.1116096 
        9.44   -2.2551785     1.430395    5.3281588 
        9.45   -2.2558361    1.4420258    5.1972619 
        9.46   -2.2569356    1.5229896    4.7291607 
        9.47   -2.2576303    1.6145827     4.208891 
        9.48   -2.2567136     1.669325    3.8752768 
        9.49   -2.2572306    1.6815985    3.7634184 
         9.5   -2.2569494    1.6579711    3.8456696 
        9.51   -2.2582204    1.6210621    4.0062926 
        9.52   -2.2591282    1.6054494    4.0815842 
        9.53   -2.2597981    1.6198299    4.0230154 
        9.54    -2.259025    1.6463004    3.9106013 
        9.55   -2.2583891    1.6681461    3.8225215 
        9.56   -2.2576165    1.6679414    3.8424865 
        9.57   -2.2573392    1.6389534    4.0009167 
        9.58   -2.2575982    1.5960881    4.2283446 
        9.59   -2.2566712    1.5490844    4.4754049 
         9.6   -2.2573104    1.5119807    4.6659334 
        9.61   -2.2583429    1.4969095    4.7405499 
        9.62   -2.2576876     1.509993    4.6720474 
        9.63   -2.2569048    1.5506835    4.4612387 
        9.64   -2.2583517    1.6126107    4.1383973 
        9.65   -2.2592912    1.6812432    3.7837055 
        9.66   -2.2595707    1.7297616    3.5296497 
        9.67   -2.2579855    1.7416734     3.461378 
        9.68   -2.2571887    1.7327023    3.5087768 
        9.69   -2.2556433    1.7134401    3.6250686 
         9.7   -2.2548505     1.672667    3.8508454 
        9.71   -2.2557452     1.624177    4.1165512 
        9.72   -2.2556202    1.5888504     4.327972 
        9.73   -2.2545922    1.5652855    4.4890627 
        9.74   -2.2537115    1.5358458    4.6790308 
        9.75   -2.2537028    1.4746976    5.0101265 
        9.76   -2.2536098    1.4053446    5.3731247 
        9.77   -2.2545713    1.4037476    5.4272921 
        9.78   -2.2547372    1.4395087    5.3049409 
        9.79   -2.2561609    1.4685003    5.2004753 
         9.8   -2.2561543    1.4934617     5.109298 
        9.81   -2.2577281     1.518018    5.0078007 
        9.82   -2.2570696    1.5370248    4.9171824 
        9.83   -2.2566643    1.5579832    4.7914328 
        9.84   -2.2562706    1.5939879    4.5682284 
        9.85   -2.2556304    1.6443633    4.2558751 
        9.86   -2.2548484    1.6946671    3.9312273 
        9.87   -2.2558992    1.7348671    3.6516424 
        9.88   -2.2552545    1.7540188    3.4859589 
        9.89   -2.2561669    1.7419661      3.48313 
         9.9   -2.2562756    1.7049709    3.6197478 
        9.91   -2.2558679    1.6647739    3.7916432 
        9.92   -2.2556147    1.6407442    3.9037622 
        9.93   -2.2553788    1.6277957      3.97282 
        9.94   -2.2552584    1.6050819    4.0871107 
        9.95   -2.2556314    1.5656305    4.2722797 
        9.96    -2.256501    1.5342634    4.4127269 
        9.97   -2.2571858    1.5496784    4.3388481 
        9.98   -2.2567063    1.5869426    4.1677575 
        9.99   -2.2577244    1.6093101    4.0672428 
          10   -2.2570997    1.6285855    4.0030819 
Loop time of 0.80054 on 8 procs for 10000 steps with 125 atoms

Performance: 1079271.532 tau/day, 12491.569 timesteps/s
164.0% CPU use with 1 MPI tasks x 8 OpenMP threads

MPI task timing breakdown:
Section |  min time  |  avg time  |  max time  |%varavg| %total
---------------------------------------------------------------
Pair    | 0.47381    | 0.47381    | 0.47381    |   0.0 | 59.19
Neigh   | 0.0019698  | 0.0019698  | 0.0019698  |   0.0 |  0.25
Comm    | 0.053953   | 0.053953   | 0.053953   |   0.0 |  6.74
Output  | 0.015559   | 0.015559   | 0.015559   |   0.0 |  1.94
Modify  | 0.25026    | 0.25026    | 0.25026    |   0.0 | 31.26
Other   |            | 0.004985   |            |       |  0.62

Nlocal:        125.000 ave         125 max         125 min
Histogram: 1 0 0 0 0 0 0 0 0 0
Nghost:        2282.00 ave        2282 max        2282 min
Histogram: 1 0 0 0 0 0 0 0 0 0
Neighs:        18980.0 ave       18980 max       18980 min
Histogram: 1 0 0 0 0 0 0 0 0 0

Total # of neighbors = 18980
Ave neighs/atom = 151.84000
Neighbor list builds = 26
Dangerous builds = 0
unfix nve
reset_timestep 0

### BRING SYSTEM TO REQUIRED STATE ###
variable tdamp equal ${timestep}*100
variable tdamp equal 0.001*100
variable pdamp equal ${timestep}*1000
variable pdamp equal 0.001*1000
fix npt all npt temp ${T} ${T} ${tdamp} iso ${p} ${p} ${pdamp}
fix npt all npt temp 2 ${T} ${tdamp} iso ${p} ${p} ${pdamp}
fix npt all npt temp 2 2 ${tdamp} iso ${p} ${p} ${pdamp}
fix npt all npt temp 2 2 0.1 iso ${p} ${p} ${pdamp}
fix npt all npt temp 2 2 0.1 iso 2 ${p} ${pdamp}
fix npt all npt temp 2 2 0.1 iso 2 2 ${pdamp}
fix npt all npt temp 2 2 0.1 iso 2 2 1
run 10000
Last active /omp style is pair_style lj/cut/omp
Per MPI rank memory allocation (min/avg/max) = 10.63 | 10.63 | 10.63 Mbytes
Time TotEng Temp Press 
          10   -2.2570997    1.6285855    4.0030819 
       10.01    -2.253459    1.6239122    4.0749236 
       10.02   -2.2436227    1.5716455    4.3878361 
       10.03   -2.2249417    1.4919038    4.8403511 
       10.04   -2.2000972    1.4205441    5.2433213 
       10.05   -2.1690597    1.4131291     5.332358 
       10.06   -2.1296878    1.4926693    5.0111232 
       10.07    -2.082252    1.6099618    4.5121182 
       10.08   -2.0311368    1.7060465    4.1028141 
       10.09   -1.9840737    1.7503431    3.9099301 
        10.1   -1.9496232    1.7386121    3.9326808 
       10.11    -1.927166    1.6935319     4.061663 
       10.12     -1.91197    1.6536759    4.1270601 
       10.13   -1.8986159      1.63651    4.0568284 
       10.14   -1.8861661    1.6466318     3.836061 
       10.15   -1.8726706    1.6994697    3.4201374 
       10.16   -1.8509827    1.7724093    2.9410817 
       10.17   -1.8248383    1.8154332    2.6222007 
       10.18   -1.7984178     1.814656    2.5225455 
       10.19   -1.7704551    1.7822106    2.5879242 
        10.2   -1.7426607    1.7370617    2.7243194 
       10.21    -1.715087    1.6971188    2.8448304 
       10.22   -1.6869191    1.6758074    2.8863991 
       10.23   -1.6558525    1.6806656    2.8181385 
       10.24   -1.6210332    1.7068466    2.6606934 
       10.25   -1.5827835    1.7489007    2.4390164 
       10.26   -1.5390833     1.804723    2.1726527 
       10.27   -1.4930275    1.8612369    1.9191234 
       10.28   -1.4469916       1.9012     1.751201 
       10.29   -1.4036227    1.9167761    1.7000997 
        10.3   -1.3626231    1.9081284    1.7649155 
       10.31   -1.3259399    1.8752063    1.9364719 
       10.32   -1.2912354    1.8245348    2.1795548 
       10.33   -1.2594515    1.7875881    2.3586111 
       10.34   -1.2263193    1.8062825    2.3174122 
       10.35   -1.1902079    1.8620395    2.1325758 
       10.36   -1.1511886    1.9169706    1.9543187 
       10.37   -1.1102151    1.9541039    1.8514736 
       10.38    -1.069261    1.9686831    1.8408167 
       10.39   -1.0309077    1.9728207    1.8748318 
        10.4  -0.99517159    1.9783667    1.9121644 
       10.41   -0.9597791     1.972568    2.0017049 
       10.42    -0.926232    1.9522635    2.1481431 
       10.43  -0.89611608    1.9378704    2.2706596 
       10.44  -0.86628687    1.9288688    2.3726841 
       10.45  -0.83927892    1.8947458    2.5578064 
       10.46  -0.81420544    1.8304034    2.8393122 
       10.47  -0.78716607    1.7846891    3.0428217 
       10.48  -0.75873275    1.7743807    3.1016419 
       10.49  -0.72643681    1.7966427    3.0266636 
        10.5  -0.69235079    1.8563327    2.8048272 
       10.51  -0.65417967     1.925485    2.5460479 
       10.52  -0.61367263    1.9797071    2.3410613 
       10.53  -0.57498785    2.0175708    2.1933611 
       10.54  -0.54078012    2.0554637    2.0450341 
       10.55  -0.50851206    2.1003743    1.8783848 
       10.56  -0.47934175    2.1366011    1.7490523 
       10.57  -0.45636729     2.148255    1.7084146 
       10.58  -0.43822686    2.1370287    1.7485338 
       10.59  -0.42772887    2.1224921    1.7949546 
        10.6  -0.42207318    2.1121764     1.822621 
       10.61  -0.41940395    2.0938747    1.8728709 
       10.62  -0.41981989    2.0624301    1.9604477 
       10.63   -0.4215143    2.0274411    2.0514452 
       10.64  -0.42451057     2.006843    2.0835583 
       10.65  -0.42809771    1.9994336    2.0617036 
       10.66  -0.43025505    1.9892742    2.0431322 
       10.67  -0.43227083    1.9714412    2.0441091 
       10.68  -0.43248142    1.9532381      2.04173 
       10.69  -0.43082935    1.9506874    1.9822116 
        10.7  -0.42800017    1.9782651    1.8196492 
       10.71  -0.42243409     2.020386    1.6121113 
       10.72  -0.41455395    2.0616708    1.4167102 
       10.73  -0.40855471     2.102605    1.2357588 
       10.74  -0.40099324    2.1298095    1.1238744 
       10.75  -0.39827101    2.1212303    1.1475779 
       10.76  -0.39962858    2.0723553    1.3185362 
       10.77  -0.40203923    2.0024718     1.567289 
       10.78  -0.40516145    1.9498738    1.7580383 
       10.79  -0.40688998    1.9490737    1.7763782 
        10.8  -0.40617317    1.9808527    1.6890262 
       10.81  -0.40450468    1.9939131    1.6666934 
       10.82  -0.40109081    1.9743062    1.7581378 
       10.83  -0.39607512    1.9605958     1.837029 
       10.84  -0.38882171    1.9694576    1.8478644 
       10.85  -0.37961214    1.9728188    1.8804004 
       10.86  -0.36692985     1.961131    1.9682085 
       10.87  -0.35204053    1.9473795    2.0665344 
       10.88   -0.3337522    1.9439288    2.1336585 
       10.89  -0.31029584    1.9525509    2.1625985 
        10.9  -0.28202376    1.9835279    2.1180745 
       10.91  -0.25009107    2.0394926    1.9893555 
       10.92  -0.21642947    2.1177426    1.7872405 
       10.93  -0.18129162    2.1957355    1.5913508 
       10.94  -0.14751096    2.2513088    1.4776531 
       10.95  -0.11972443    2.2676907    1.5004219 
       10.96  -0.09967438    2.2313053    1.7013381 
       10.97 -0.083981717    2.1499729    2.0523501 
       10.98 -0.073984431    2.0710358    2.3894731 
       10.99 -0.066282807      2.03933    2.5640132 
          11 -0.059570415    2.0384664    2.6240311 
       11.01 -0.054775317     2.042633    2.6490011 
       11.02 -0.050675493     2.063964    2.6034437 
       11.03 -0.049558832    2.1022109    2.4902152 
       11.04 -0.051149187    2.1094415    2.4645036 
       11.05  -0.05695153    2.0847998    2.5244427 
       11.06 -0.066529409    2.0741627     2.518455 
       11.07 -0.078585784    2.0882816     2.411819 
       11.08 -0.093839884    2.0880528    2.3318778 
       11.09  -0.11454644    2.0568504    2.3331868 
        11.1  -0.13881189    2.0278575     2.313618 
       11.11  -0.16675329     2.025145    2.1965954 
       11.12  -0.19727132    2.0289695    2.0472208 
       11.13  -0.23276416    2.0264333    1.9079094 
       11.14  -0.27073761    2.0174576    1.7865819 
       11.15  -0.31208154    1.9951136    1.7083431 
       11.16  -0.35473871    1.9572801    1.6865656 
       11.17  -0.39882774    1.9106467    1.7023757 
       11.18  -0.44195582    1.8673411    1.7203463 
       11.19  -0.47951026    1.8316798    1.7306061 
        11.2  -0.51509665     1.796433    1.7495905 
       11.21  -0.54540079    1.7616248    1.7788213 
       11.22  -0.56887371    1.7453157    1.7621066 
       11.23  -0.58539993    1.7574685    1.6691848 
       11.24  -0.59750293    1.7750066    1.5700116 
       11.25  -0.60309243    1.7874804    1.5014288 
       11.26  -0.60165734    1.7944883     1.467423 
       11.27   -0.5954196    1.7909805    1.4822981 
       11.28  -0.58163853    1.7925528    1.5014311 
       11.29  -0.56035719    1.8150347    1.4766596 
        11.3  -0.53329665    1.8488022    1.4367188 
       11.31  -0.49594285    1.8904865    1.3994081 
       11.32  -0.45097352    1.9414365    1.3610355 
       11.33  -0.39883396    1.9849887    1.3756662 
       11.34  -0.34346634    2.0108527    1.4717455 
       11.35  -0.28284131    2.0201737    1.6440635 
       11.36  -0.22182005    2.0236454    1.8441951 
       11.37  -0.16168926     2.051237    1.9673867 
       11.38  -0.10187841    2.1027772    2.0074355 
       11.39 -0.046033511    2.1486994    2.0483104 
        11.4 -0.0003570169    2.1766083    2.1197229 
       11.41  0.037814238    2.1902977    2.2098917 
       11.42  0.065967707    2.1973528    2.2885396 
       11.43  0.086611229     2.209749    2.3191734 
       11.44  0.097364709    2.2380557     2.268219 
       11.45  0.098991159    2.2643648    2.1977347 
       11.46  0.091752671    2.2643833    2.1893911 
       11.47  0.078509735    2.2383749    2.2475781 
       11.48  0.059171915    2.1986329    2.3299305 
       11.49  0.034428456    2.1661796    2.3654577 
        11.5 0.0082722823    2.1566887    2.3066537 
       11.51 -0.021008309    2.1641092    2.1739762 
       11.52 -0.053838164     2.166542    2.0434693 
       11.53 -0.088103913    2.1657708    1.9224704 
       11.54  -0.12157261    2.1640661    1.8155966 
       11.55  -0.15642068    2.1427435    1.7854403 
       11.56  -0.18956408    2.0949787    1.8611248 
       11.57  -0.21848373    2.0175881    2.0518693 
       11.58  -0.24286599    1.9606125    2.1922967 
       11.59  -0.26337108    1.9882043    2.0762571 
        11.6  -0.28274856    2.0224329    1.9450185 
       11.61  -0.29668654    1.9910918    2.0348902 
       11.62  -0.31043096    1.9162564    2.2681438 
       11.63  -0.31920998    1.8659476    2.4263308 
       11.64  -0.32466173    1.8675783     2.412687 
       11.65  -0.32578379    1.9001997    2.2945005 
       11.66  -0.32472294    1.9246871    2.1964793 
       11.67  -0.32284272    1.9349801     2.138171 
       11.68  -0.32012348    1.9518775     2.052959 
       11.69  -0.31339418    1.9849076      1.91273 
        11.7  -0.30879031    2.0204099    1.7537775 
       11.71  -0.30220609    2.0466422    1.6203527 
       11.72  -0.29843881    2.0710764    1.4889204 
       11.73   -0.2955896    2.0966026    1.3599928 
       11.74  -0.29514825    2.1063033    1.2924258 
       11.75  -0.29899708    2.0951973    1.3060586 
       11.76  -0.30530262    2.0738219    1.3720468 
       11.77   -0.3136811    2.0420427    1.4878791 
       11.78  -0.32142691    1.9942021    1.6655592 
       11.79  -0.32764272    1.9450856    1.8474656 
        11.8  -0.33448247    1.9198898    1.9410744 
       11.81    -0.340996    1.9235894    1.9267991 
       11.82  -0.34619093    1.9499673    1.8280605 
       11.83  -0.35014849    1.9956444    1.6634665 
       11.84  -0.35594704    2.0476907    1.4806731 
       11.85  -0.36482966    2.0722522    1.3938855 
       11.86  -0.37609341    2.0457245     1.482142 
       11.87   -0.3915409    1.9868778     1.681195 
       11.88  -0.40836298    1.9262585    1.8896583 
       11.89  -0.42623049    1.8776802    2.0554511 
        11.9  -0.44609451    1.8555033    2.1280276 
       11.91  -0.46497186    1.8489366    2.1452007 
       11.92  -0.48424639    1.8383151    2.1716226 
       11.93  -0.50206521    1.8129682    2.2450527 
       11.94  -0.51778429    1.7811316    2.3352449 
       11.95  -0.53021732    1.7894931    2.2918712 
       11.96   -0.5399265    1.8279723    2.1487738 
       11.97  -0.54702064    1.8517837    2.0550603 
       11.98  -0.55094797    1.8655038    2.0021564 
       11.99  -0.55027646    1.8767277    1.9670142 
          12  -0.54701207    1.8933161    1.9203758 
       12.01  -0.54084918    1.9302086    1.8159181 
       12.02  -0.53223455    1.9832393    1.6715786 
       12.03  -0.52234259    2.0288001    1.5701561 
       12.04  -0.51170931    2.0382712     1.609398 
       12.05  -0.50107081    2.0018438    1.8191219 
       12.06   -0.4908875    1.9406558    2.1205153 
       12.07  -0.47722204    1.8957531    2.3709228 
       12.08  -0.45963079    1.8812606    2.5136991 
       12.09  -0.43576629    1.8799897    2.6022118 
        12.1  -0.41003373    1.9055279     2.589643 
       12.11  -0.38003509     1.961351    2.4738392 
       12.12  -0.34700664    2.0067899    2.3906643 
       12.13  -0.31372782    2.0346882    2.3629001 
       12.14  -0.27839817     2.055352    2.3580271 
       12.15  -0.24459529    2.0712761     2.360787 
       12.16  -0.21040223    2.0949977    2.3308626 
       12.17  -0.17763057    2.1448823    2.2086607 
       12.18  -0.14660214     2.196685    2.0776588 
       12.19  -0.12448333    2.2131626     2.053905 
        12.2   -0.1043477    2.2017742    2.1186672 
       12.21 -0.090420039    2.1996924    2.1384272 
       12.22 -0.082519385    2.2315025    2.0307607 
       12.23 -0.082938964    2.2603254    1.9182665 
       12.24 -0.090818413    2.2392722    1.9621696 
       12.25  -0.10672989    2.1675743    2.1643408 
       12.26   -0.1316288    2.0904914    2.3672536 
       12.27  -0.16089583    2.0444274    2.4477723 
       12.28   -0.1958656    2.0089241    2.4647753 
       12.29  -0.23229093      1.97033    2.4658908 
        12.3  -0.27200327    1.9655972    2.3290193 
       12.31  -0.31460251    2.0120192     2.004485 
       12.32  -0.35957057    2.0493146    1.7005981 
       12.33  -0.41133222    2.0422657    1.5414063 
       12.34  -0.46455927     1.996651    1.5232754 
       12.35  -0.51885632      1.93004    1.5895533 
       12.36  -0.56876237    1.8763316     1.632188 
       12.37  -0.61531606    1.8586187    1.5720329 
       12.38  -0.65474566    1.8470968    1.5107399 
       12.39  -0.68852824    1.8246974    1.5052457 
        12.4  -0.71566216    1.8015783     1.524644 
       12.41  -0.73752404    1.7892938    1.5283152 
       12.42  -0.74978514    1.7924992    1.5055942 
       12.43  -0.75685485    1.8061481    1.4685934 
       12.44  -0.75864385    1.8221432    1.4457369 
       12.45  -0.75576513    1.8320119    1.4654182 
       12.46  -0.74871869    1.8288755    1.5487663 
       12.47  -0.73521684    1.8138024    1.6910583 
       12.48  -0.71572457    1.7945058    1.8593399 
       12.49  -0.69121566    1.7953167    1.9657598 
        12.5  -0.65958472    1.8416441    1.9279119 
       12.51  -0.62398826     1.915545    1.8058654 
       12.52  -0.58526657    1.9778226    1.7360993 
       12.53  -0.54540169    2.0121489     1.776834 
       12.54  -0.50522966    2.0187389    1.9276821 
       12.55  -0.46508179    2.0003013    2.1752224 
       12.56  -0.42619138    1.9653374    2.4809978 
       12.57  -0.38787894    1.9322735    2.7726717 
       12.58  -0.35131344    1.9272598    2.9502123 
       12.59  -0.31510873    1.9612531    2.9723649 
        12.6   -0.2813642    2.0107131    2.9142099 
       12.61   -0.2519987    2.0443875    2.8784574 
       12.62  -0.22673782    2.0552193    2.8869352 
       12.63  -0.20744808    2.0655324    2.8593096 
       12.64  -0.19445565    2.0992498    2.7162336 
       12.65  -0.18839035    2.1490804     2.490176 
       12.66   -0.1869493    2.1833082    2.3031044 
       12.67  -0.19419099    2.1872208    2.2095596 
       12.68  -0.20232536    2.1815361    2.1543775 
       12.69  -0.21576687    2.1862465    2.0678644 
        12.7  -0.23365775      2.18574    2.0056572 
       12.71  -0.25470452    2.1543674    2.0546002 
       12.72  -0.27795473      2.10641    2.1628171 
       12.73  -0.29958143    2.0815029    2.1945521 
       12.74   -0.3242054    2.0940346    2.0925219 
       12.75  -0.34932553    2.1094991    1.9774398 
       12.76  -0.37628144    2.0955567    1.9599446 
       12.77  -0.40415262    2.0515066     2.043113 
       12.78  -0.43329949    2.0064906    2.1240904 
       12.79  -0.45977013    1.9939546    2.0917175 
        12.8  -0.48671642    2.0070878    1.9653446 
       12.81  -0.51396195     2.009949     1.870314 
       12.82  -0.54078168    1.9871027    1.8653721 
       12.83  -0.56703718    1.9493903    1.9181681 
       12.84  -0.59096173       1.9013    2.0145273 
       12.85  -0.61271065    1.8363851    2.1676577 
       12.86  -0.62944242    1.7937936    2.2417751 
       12.87  -0.64024189    1.8160286    2.0950821 
       12.88  -0.64631311    1.8668239    1.8533505 
       12.89  -0.64862532    1.9071184    1.6597521 
        12.9  -0.64710049    1.9134349    1.6021354 
       12.91  -0.64432716    1.8916645    1.6597434 
       12.92  -0.63792985    1.8673036    1.7466397 
       12.93  -0.62783685    1.8641706    1.7785061 
       12.94  -0.60982138    1.8849332    1.7484586 
       12.95  -0.58754008    1.9197982    1.6858418 
       12.96  -0.56017159    1.9569469    1.6344223 
       12.97  -0.52972204    1.9839271    1.6348953 
       12.98  -0.49292805    1.9968816    1.7021266 
       12.99  -0.45285423    2.0046176    1.7992688 
          13  -0.41145186     2.015161    1.8916898 
       13.01    -0.367448    2.0431066    1.9289734 
       13.02  -0.32158017    2.1034338    1.8627262 
       13.03  -0.27429948    2.1741419     1.771072 
       13.04  -0.22996564    2.2125392    1.7958495 
       13.05  -0.19189617    2.2032317    1.9852972 
       13.06  -0.15730606    2.1612903    2.2853948 
       13.07  -0.12944998    2.1146117    2.5829609 
       13.08  -0.10507143    2.1320833    2.6402405 
       13.09 -0.082817944    2.2127676    2.4603408 
        13.1 -0.065594714    2.2604747    2.3642373 
       13.11 -0.057150977    2.2626069    2.3999568 
       13.12 -0.057487072    2.2387324    2.5049422 
       13.13 -0.067801444    2.2017541    2.6329755 
       13.14 -0.083860849    2.1500003     2.789786 
       13.15  -0.10898509    2.0976201    2.9196503 
       13.16  -0.14039631    2.0658487    2.9504796 
       13.17  -0.18094155    2.0392596    2.9220991 
       13.18  -0.23041563    2.0111186    2.8497698 
       13.19  -0.28780998     2.021546    2.6054329 
        13.2  -0.35619258    2.0439985    2.2805259 
       13.21  -0.43474719    2.0378231    2.0234228 
       13.22  -0.51903436    1.9971184    1.8727445 
       13.23  -0.60594348    1.9316177    1.8085897 
       13.24  -0.68320913    1.8689718     1.759032 
       13.25  -0.75040493    1.8296278    1.6585878 
       13.26   -0.8074336    1.8063502    1.5297397 
       13.27  -0.85388157    1.7933364    1.3928213 
       13.28  -0.88717148    1.7926075    1.2469003 
       13.29  -0.91202535    1.8007586    1.1011526 
        13.3  -0.92755847    1.8059516   0.99839849 
       13.31  -0.93603102    1.7987713   0.96868666 
       13.32  -0.93767694    1.7806271    1.0069817 
       13.33  -0.93423782     1.760901    1.0779805 
       13.34  -0.92586684    1.7474456    1.1510412 
       13.35  -0.91070272    1.7435311    1.2129909 
       13.36  -0.88878874     1.746891    1.2673199 
       13.37  -0.86280886    1.7503386    1.3311924 
       13.38  -0.83049964    1.7487529    1.4211445 
       13.39   -0.7938323    1.7473616    1.5152485 
        13.4  -0.75204959    1.7655535    1.5506407 
       13.41  -0.70580045    1.8165716    1.4859721 
       13.42  -0.65762387    1.8825889    1.3794502 
       13.43  -0.60869033    1.9301543    1.3407985 
       13.44  -0.56354077     1.945076    1.4111285 
       13.45  -0.52238726    1.9434818    1.5359973 
       13.46  -0.48338097    1.9402888    1.6645991 
       13.47  -0.44797617    1.9391185    1.7795707 
       13.48  -0.41374631    1.9416005    1.8782071 
       13.49  -0.38329079    1.9427916    1.9758947 
        13.5  -0.35298436     1.945055    2.0716734 
       13.51  -0.32362512    1.9595147    2.1290645 
       13.52    -0.295569    1.9699141    2.1944659 
       13.53  -0.26832168    1.9776934    2.2580824 
       13.54  -0.24237279    2.0150891    2.2124543 
       13.55  -0.21833976    2.0856836    2.0455435 
       13.56  -0.19941645    2.1563846    1.8646962 
       13.57  -0.18540261     2.204339    1.7510614 
       13.58  -0.17868356     2.219663    1.7397277 
       13.59   -0.1772929    2.1982431    1.8490261 
        13.6  -0.18197562    2.1503202    2.0448521 
       13.61  -0.18906918     2.091158    2.2792826 
       13.62   -0.1991097    2.0330147    2.5066043 
       13.63  -0.21030494    1.9926139    2.6686566 
       13.64  -0.22120591    1.9770965    2.7382948 
       13.65   -0.2329239    1.9652017    2.7780349 
       13.66  -0.24611635    1.9541001    2.7930727 
       13.67  -0.25795766    1.9585895    2.7369853 
       13.68  -0.26864668    1.9777043    2.6143089 
       13.69  -0.28195713    2.0085421     2.436463 
        13.7  -0.29680222    2.0483262    2.2216822 
       13.71  -0.31622067    2.0840485    2.0158688 
       13.72  -0.33987957    2.0986551    1.8802902 
       13.73  -0.36983092    2.0792502    1.8557444 
       13.74  -0.40430837    2.0318019    1.9204118 
       13.75  -0.44257027    1.9893891    1.9596829 
       13.76  -0.48496955    1.9780353    1.8834909 
       13.77  -0.53278863     1.976997    1.7596054 
       13.78  -0.58354265    1.9525359    1.7077709 
       13.79  -0.63772598    1.9017818    1.7419881 
        13.8  -0.69031465    1.8483888    1.7916922 
       13.81  -0.74205807    1.8057919    1.8098722 
       13.82   -0.7892502    1.7713905    1.8081841 
       13.83  -0.82799203    1.7510757    1.7726172 
       13.84  -0.86120701    1.7497586    1.6854782 
       13.85   -0.8900392    1.7654169    1.5567222 
       13.86  -0.90947009    1.7802258    1.4573223 
       13.87  -0.92580113    1.7773975    1.4401091 
       13.88  -0.93499629    1.7633725     1.489829 
       13.89   -0.9378249    1.7552088    1.5457848 
        13.9   -0.9337517    1.7579316    1.5863351 
       13.91  -0.92208353    1.7661784    1.6247989 
       13.92  -0.90306454    1.7842066    1.6438928 
       13.93  -0.87722758    1.8181042    1.6230133 
       13.94  -0.84344295     1.865004    1.5773885 
       13.95  -0.80117381    1.9162599    1.5433548 
       13.96  -0.75088364    1.9634342    1.5545571 
       13.97  -0.68893174    2.0026358     1.631237 
       13.98  -0.61838303    2.0332208    1.7703424 
       13.99  -0.53764693    2.0546005    1.9695172 
          14  -0.44994329    2.0794155    2.1723021 
       14.01  -0.35868895    2.1354784    2.2716868 
       14.02  -0.26768607    2.2127308    2.2909951 
       14.03  -0.18418802    2.2733613    2.3457733 
       14.04  -0.11464936    2.3057519    2.4648483 
       14.05 -0.063652181    2.3138896    2.6251831 
       14.06 -0.028095514    2.2985001    2.8220524 
       14.07 -0.0058236706    2.2896545    2.9478404 
       14.08 0.0035490666    2.3338211     2.842031 
       14.09 -0.00064879467    2.3926384    2.6425699 
        14.1 -0.014057931    2.3865652    2.6409441 
       14.11 -0.037098909    2.3375797    2.7682406 
       14.12 -0.066277894    2.3125935     2.794011 
       14.13 -0.099254796    2.3068975    2.7310279 
       14.14  -0.13537566    2.2994602     2.655754 
       14.15  -0.17502154    2.2826152    2.6016803 
       14.16  -0.21907553    2.2553498    2.5771366 
       14.17  -0.26407173    2.2219206    2.5742294 
       14.18  -0.31002963    2.1891011    2.5690627 
       14.19  -0.35792046    2.1569824      2.55893 
        14.2   -0.4035291    2.1226049    2.5592008 
       14.21  -0.44928455    2.0840973     2.574094 
       14.22  -0.49135376     2.035913    2.6268805 
       14.23  -0.52944445    1.9853546     2.687845 
[...]
   27270  -0.15840697    2.2053346     1.923961   0.59101413 
   27280  -0.23415017    2.1515139    1.8585584   0.59010503 
   27290  -0.29969636    2.0850773      1.87045   0.58920542 
   27300  -0.35235381    2.0221745    1.9096289   0.58831441 
   27310  -0.39245663      1.97909    1.9175775   0.58742708 
   27320  -0.42237936    1.9710591    1.8383439    0.5865432 
   27330  -0.44543075    1.9790867     1.727966   0.58567404 
   27340   -0.4646959     1.975225    1.6728419   0.58483516 
   27350  -0.48028527    1.9560237    1.6823567   0.58403511 
   27360  -0.49080027    1.9318482    1.7204258   0.58327331 
   27370  -0.50080902    1.9196492    1.7234854   0.58254548 
   27380  -0.50422992    1.9164742    1.7066296   0.58185114 
   27390  -0.50807023    1.9094712    1.7025042   0.58119275 
   27400  -0.50711575    1.9068772    1.6898617   0.58057153 
   27410  -0.50506672    1.9167618    1.6365759   0.57999019 
   27420  -0.49954046    1.9417927    1.5371988   0.57945707 
   27430  -0.49216428    1.9772567    1.4093479   0.57898723 
   27440  -0.48204814    2.0064895    1.3131734   0.57859954 
   27450  -0.47475627    2.0168373    1.2875459   0.57830862 
   27460  -0.46405935    1.9998318    1.3683474   0.57811868 
   27470  -0.45374488    1.9498481      1.56475   0.57801855 
   27480  -0.44295369    1.8881042    1.7999848   0.57798073 
   27490   -0.4270072     1.866947    1.9027754   0.57797295 
   27500  -0.40785829    1.9036681    1.8128378   0.57798086 
   27510  -0.38484423    1.9621938    1.6537845   0.57801636 
   27520  -0.35836721    1.9976305    1.5783295   0.57810146 
   27530  -0.33059091    2.0181542    1.5635025   0.57824832 
   27540    -0.301316    2.0518893    1.5204865   0.57846097 
   27550  -0.27109868     2.093776    1.4640179   0.57874628 
   27560  -0.24320872    2.1246523    1.4529659   0.57911274 
   27570  -0.21754022     2.133717    1.5234584   0.57956235 
   27580  -0.19372754    2.1195054    1.6785613   0.58008551 
   27590  -0.17146254    2.0872024    1.8936732   0.58066007 
   27600  -0.15217002    2.0698707    2.0507503   0.58125595 
   27610  -0.13538373    2.0955704     2.055349   0.58185121 
   27620  -0.12082788    2.1339806    2.0060929   0.58244357 
   27630  -0.10916498    2.1624743    1.9792362    0.5830394 
   27640  -0.10035769    2.1851113    1.9645374   0.58364288 
   27650 -0.097481113    2.1970594    1.9770629   0.58425618 
   27660  -0.10175272    2.1675967    2.1154103   0.58487606 
   27670   -0.1112028    2.1088471     2.340776   0.58548238 
   27680  -0.12646983    2.0712416    2.4841432   0.58604361 
   27690  -0.14674864    2.0657731    2.5063313   0.58653835 
   27700  -0.17274989    2.0451788    2.5584851   0.58696044 
   27710  -0.20509074    1.9882563    2.7107609   0.58730046 
   27720  -0.23895777    1.9094432    2.9200649   0.58753534 
   27730  -0.27332575    1.8549098     3.032415   0.58763474 
   27740  -0.31037372    1.8605693    2.9250146   0.58758237 
   27750  -0.34755016    1.8838281    2.7378723   0.58739084 
   27760  -0.38634894    1.8953148     2.570343   0.58708581 
   27770  -0.42407898    1.8900974    2.4466105   0.58669104 
   27780  -0.45993017    1.8778232    2.3383554   0.58622461 
   27790  -0.49711358     1.882551     2.166315   0.58570332 
   27800  -0.53408478     1.899109    1.9539301   0.58515212 
   27810  -0.56832382    1.9017716    1.7950958   0.58460123 
   27820  -0.60243367    1.8824982    1.7195232   0.58407408 
   27830  -0.63297903    1.8528602    1.6958535   0.58358252 
   27840    -0.659979    1.8332166    1.6577877   0.58313128 
   27850  -0.68451684     1.822615    1.6056518   0.58272636 
   27860  -0.70646633    1.8078983    1.5807134   0.58237536 
   27870  -0.72155641    1.7917412    1.5778866   0.58208234 
   27880  -0.73523681    1.7921146    1.5322152   0.58184921 
   27890  -0.74263584    1.8133423    1.4380571   0.58168335 
   27900  -0.74494835    1.8339281    1.3695842   0.58159843 
   27910  -0.74115282    1.8323898    1.4033652   0.58160442 
   27920  -0.73163877    1.8067186    1.5466363   0.58169707 
   27930   -0.7160793    1.7722159    1.7460963   0.58185646 
   27940  -0.69298705    1.7536753    1.9170775   0.58205447 
   27950  -0.65660835    1.7739501    1.9889764   0.58226681 
   27960  -0.60682938    1.8287443    1.9767214   0.58248265 
   27970   -0.5437624    1.8904882    1.9724472   0.58270265 
   27980  -0.47015681    1.9396525    2.0367549   0.58292677 
   27990  -0.39136737     1.971997    2.1709212   0.58314537 
   28000  -0.31337001    1.9940781     2.334864   0.58333886 
   28010  -0.23814804    2.0133236    2.4884578   0.58348291 
   28020   -0.1728163    2.0340129    2.5973289   0.58355449 
   28030  -0.11622998    2.0650301    2.6271256   0.58353711 
   28040 -0.071242156    2.0986067    2.5955582   0.58342497 
   28050 -0.035461531    2.1570842    2.4393559   0.58322302 
   28060 -0.009188478    2.2136022    2.2538641   0.58295232 
   28070 0.0057776201    2.2441414    2.1250015   0.58263896 
   28080  0.012214194    2.2522447    2.0520922   0.58230185 
   28090 0.0079653287    2.2469627    2.0077295   0.58195209 
   28100 -0.0018977331    2.2289107    1.9982517    0.5815961 
   28110 -0.018953578    2.1875596    2.0545675   0.58123472 
   28120 -0.041690523    2.1483179    2.0938501   0.58086053 
   28130 -0.067303531     2.146952    2.0021604   0.58046911 
   28140 -0.095505824    2.1740801    1.8112855   0.58007363 
   28150  -0.13068038    2.1912767    1.6449212   0.57970093 
   28160  -0.16823757    2.1768617    1.5843242   0.57937494 
   28170  -0.21021976    2.1403793    1.5995835   0.57910562 
   28180  -0.25514381    2.1058399    1.6158041   0.57889226 
   28190  -0.30161049    2.0764449    1.6247763   0.57873301 
   28200  -0.34692867    2.0300218    1.7021426   0.57862601 
   28210  -0.38782354    1.9540072    1.8922536    0.5785596 
   28220  -0.42439531    1.8692189    2.1242653   0.57850682 
   28230  -0.45326882    1.8032459    2.3049532   0.57843438 
   28240  -0.47508109    1.7651233    2.3939825    0.5783155 
   28250  -0.48967493    1.7680269    2.3430854   0.57813714 
   28260   -0.4980664    1.8055855    2.1712366   0.57790617 
   28270  -0.50048116    1.8468133    1.9825459   0.57764623 
   28280  -0.49751328    1.8898601    1.7919184   0.57738508 
   28290  -0.49228602    1.9351831     1.603493   0.57715131 
   28300   -0.4864903    1.9567791    1.5043311   0.57697208 
   28310  -0.47767586    1.9474909     1.522213   0.57686234 
   28320  -0.46832044    1.9235848     1.597329   0.57682088 
   28330  -0.45598092    1.9202571    1.6121876   0.57683865 
   28340  -0.44019291    1.9570411      1.50133   0.57691495 
   28350   -0.4210487     2.006816    1.3540533   0.57706572 
   28360  -0.40440249    2.0422332    1.2582357   0.57731271 
   28370  -0.38642003    2.0544784    1.2518487   0.57767081 
   28380  -0.36829974    2.0453069    1.3284441   0.57814239 
   28390  -0.35041322    2.0281976    1.4410162   0.57871796 
   28400  -0.33136896    2.0224162    1.5252848   0.57938283 
   28410  -0.31201926    2.0351616    1.5551173    0.5801259 
   28420  -0.28969373    2.0603102    1.5552917   0.58094327 
   28430  -0.26786884    2.0822148     1.577163   0.58183522 
   28440  -0.24343901    2.0813536    1.6904298   0.58279838 
   28450  -0.21644835    2.0584854    1.8912871   0.58381677 
   28460  -0.18571496    2.0380493    2.0955886   0.58486209 
   28470  -0.14902202    2.0551635    2.1848986   0.58590548 
   28480  -0.10591703    2.1240285    2.1133039   0.58693415 
   28490 -0.058948845    2.2033947    2.0180241   0.58795659 
   28500 -0.0070113479    2.2555455    2.0293845    0.5889851 
   28510  0.045027211     2.280681     2.140409   0.59001812 
   28520  0.093526493    2.2878037    2.3096615   0.59103956 
   28530   0.13670228     2.277036    2.5242038   0.59202396 
   28540   0.17452727    2.2518772    2.7611359   0.59293888 
   28550   0.20609602    2.2452454    2.9009828   0.59374952 
   28560   0.22834865    2.2881845    2.8335318   0.59443518 
   28570    0.2421294    2.3488195    2.6666939    0.5950029 
   28580   0.24275755    2.3671593    2.5973326   0.59547376 
   28590   0.22974901    2.3474826     2.611982   0.59585699 
   28600   0.20171506     2.366124    2.4612814   0.59615355 
   28610   0.15724259    2.3746667     2.301988   0.59638218 
   28620  0.095818812    2.3658206    2.1660805     0.596566 
   28630  0.021506505    2.3388947    2.0650999   0.59672467 
   28640 -0.061175493    2.2896096    2.0218036   0.59687268 
   28650  -0.15039884    2.2302347    2.0026192     0.597017 
   28660   -0.2346058    2.1679099    2.0021789   0.59716049 
   28670  -0.31070864    2.1042546    2.0224573    0.5973033 
   28680  -0.37657085    2.0428179    2.0555369   0.59744252 
   28690  -0.43146413    2.0013212    2.0433128   0.59757395 
   28700  -0.47676044    1.9908301    1.9481162   0.59769993 
   28710   -0.5148094    1.9880826    1.8462265   0.59783354 
   28720  -0.54612106    1.9802075    1.7846401   0.59798959 
   28730  -0.57290791    1.9629315    1.7779904   0.59817739 
   28740  -0.59656945    1.9363666    1.8246934   0.59839831 
   28750  -0.61516726    1.8989382    1.9297602   0.59864568 
   28760  -0.63078371    1.8505872     2.085812    0.5989042 
   28770   -0.6403957    1.8021129    2.2541637   0.59915117 
   28780  -0.64348582    1.7665706    2.3850134   0.59936183 
   28790  -0.64093871    1.7734187    2.3771907   0.59951767 
   28800  -0.63322944    1.8135449    2.2634586   0.59961889 
   28810  -0.62003627    1.8387516    2.2077454   0.59967959 
   28820  -0.60289294    1.8613395    2.1699287    0.5997082 
   28830  -0.58228454    1.9271156    2.0015918   0.59971227 
   28840  -0.55541375    1.9902226    1.8606432   0.59971433 
   28850  -0.52892764    1.9981885    1.9145226   0.59973337 
   28860  -0.49992482    1.9629731    2.1223574     0.599762 
   28870  -0.47123799     1.929286    2.3229468   0.59977136 
   28880  -0.44050768    1.9350022      2.38856   0.59973306 
   28890  -0.40793129    1.9640814    2.3705718    0.5996358 
   28900  -0.37287171    2.0204271    2.2625428   0.59948186 
   28910  -0.33558438    2.0823206    2.1429011   0.59928581 
   28920  -0.30068195    2.1062221    2.1527561   0.59906308 
   28930   -0.2694701    2.0986748    2.2652791   0.59881234 
   28940  -0.24219589    2.0838535    2.3868587   0.59851752 
   28950  -0.21740427    2.1139873    2.3360427   0.59816267 
   28960  -0.19642406    2.1780051    2.1437095    0.5977541 
   28970  -0.17990053    2.2381605    1.9415166   0.59731842 
   28980  -0.17078693     2.260242    1.8474485   0.59688384 
   28990  -0.16878006    2.2651436    1.8001248   0.59646536 
   29000  -0.17682055     2.265684    1.7575155   0.59607092 
   29010  -0.19406106    2.2356694    1.8073641   0.59570583 
   29020  -0.21896693    2.1724392    1.9578605   0.59536276 
   29030  -0.25157352    2.1113733    2.0875128   0.59502111 
   29040  -0.29118907    2.0746326    2.1181364   0.59466253 
   29050   -0.3346219    2.0554218    2.0734665   0.59428197 
   29060  -0.38373809    2.0367187    2.0093217   0.59388521 
   29070  -0.43688059    2.0043519    1.9780269   0.59348097 
   29080  -0.49241902    1.9526959    2.0027946   0.59307361 
   29090  -0.54761482    1.8909876     2.057752   0.59265976 
   29100   -0.6018578    1.8352643    2.0905577   0.59223184 
   29110   -0.6507826    1.8017038    2.0527853   0.59178536 
   29120  -0.69348211    1.8012412    1.9118724   0.59132624 
   29130  -0.73234059    1.8183884    1.7214862   0.59087475 
   29140  -0.76408802    1.8204705    1.5988382   0.59045785 
   29150  -0.78811934    1.7973367      1.58064   0.59009376 
   29160  -0.80784229    1.7809851    1.5581074   0.58978735 
   29170  -0.82028954    1.7909789    1.4703444   0.58954336 
   29180  -0.82582232    1.8085417    1.3800431    0.5893746 
   29190  -0.82684173    1.8184902    1.3380137   0.58929483 
   29200  -0.82266334    1.8165974    1.3604917   0.58931116 
   29210  -0.81435593    1.8041178    1.4400625   0.58942149 
   29220  -0.79742193    1.7877246    1.5554956   0.58961527 
   29230  -0.77607985    1.7742739    1.6730455   0.58987669 
   29240  -0.74611169    1.7802328    1.7395976    0.5901896 
   29250  -0.70891158    1.8219108    1.7022251   0.59054549 
   29260  -0.66066856    1.8757941    1.6480245   0.59094927 
   29270  -0.60253171    1.9187961    1.6571087   0.59140858 
   29280  -0.53760991     1.957364    1.7069547   0.59192318 
   29290  -0.46547456    2.0027678    1.7585044   0.59248684 
   29300  -0.38898625    2.0575988     1.794449   0.59309265 
   29310  -0.31119457     2.112727    1.8336933    0.5937355 
   29320  -0.23979775    2.1569518    1.8945881   0.59440975 
   29330  -0.17994445     2.194266    1.9484009   0.59510701 
   29340  -0.13388631    2.2454664    1.9182393   0.59582046 
   29350  -0.10281285    2.3196682    1.7748446   0.59655528 
   29360 -0.086875725    2.3857329    1.6300886   0.59733163 
   29370 -0.086793361    2.4082645    1.6143447   0.59817003 
   29380 -0.096967506    2.3774069    1.7794241   0.59907305 
   29390  -0.11350455    2.2990965    2.1129432   0.60001705 
   29400  -0.13188475    2.1933635    2.5438539   0.60095348 
   29410  -0.14982898    2.1002441    2.9217574   0.60181956 
   29420  -0.16815735    2.0576176    3.0975456   0.60255963 
   29430  -0.18476387    2.0641103    3.0660307   0.60314566 
   29440  -0.20446034    2.0840368     2.943098   0.60357879 
   29450  -0.22606808    2.0991373    2.8027877   0.60387441 
   29460  -0.24977428    2.1299838    2.5904457   0.60405271 
   29470  -0.27618148    2.1644675     2.357367   0.60414344 
   29480  -0.30903728    2.1635823    2.2379591   0.60417879 
   29490  -0.34551688    2.1228881    2.2549776   0.60417563 
   29500  -0.38435805    2.0674832    2.3247303   0.60413213 
   29510  -0.42446248    2.0204608    2.3671795   0.60403851 
   29520  -0.46256655    1.9818318    2.3821118   0.60388788 
   29530  -0.49789612    1.9488317    2.3767787   0.60367724 
   29540  -0.53214206    1.9324839    2.3104263   0.60340729 
   29550  -0.56435142    1.9424117    2.1534564   0.60308776 
   29560  -0.59538153    1.9651578    1.9554042   0.60274096 
   29570  -0.62522737    1.9756765    1.8085328   0.60239501 
   29580   -0.6533087    1.9589833    1.7711834   0.60207119 
   29590  -0.67842039    1.9115473    1.8584508   0.60177519 
   29600  -0.70098866    1.8510179    2.0065875   0.60149502 
   29610  -0.71885976     1.809398     2.104891   0.60121022 
   29620  -0.73181921    1.7934698    2.1255009    0.6009064 
   29630  -0.73844204    1.7917655    2.1062712   0.60057975 
   29640   -0.7417507    1.7969634    2.0684235   0.60023264 
   29650  -0.73698215    1.8121032    2.0096758    0.5998705 
   29660  -0.72817491    1.8312836    1.9481881    0.5995018 
   29670  -0.71433809    1.8377177    1.9432824   0.59913477 
   29680   -0.6932139    1.8409025    1.9672109   0.59877054 
   29690  -0.66839305    1.8643958    1.9374296   0.59840678 
   29700  -0.63612345    1.9068987    1.8621384   0.59804772 
   29710   -0.5995115    1.9580308    1.7734873   0.59770429 
   29720  -0.55844316     2.010474    1.6998021   0.59738952 
   29730  -0.51419793    2.0506797     1.687828   0.59711403 
   29740  -0.46973566    2.0690901    1.7666029   0.59687971 
   29750  -0.42688725    2.0565049    1.9608451   0.59667491 
   29760  -0.38531148    1.9972456    2.3109047   0.59647022 
   29770  -0.34548202     1.920382    2.7019939   0.59621478 
   29780  -0.30734427    1.9028784    2.8642279   0.59585316 
   29790  -0.26655241    1.9821783    2.6774217   0.59536168 
   29800  -0.22430212    2.0911584    2.3711283    0.5947638 
   29810  -0.18665114    2.1661291    2.1602806    0.5941015 
   29820  -0.15569252    2.2067475    2.0493523   0.59340575 
   29830  -0.13109625    2.2334335    1.9716184   0.59269379 
   29840  -0.11717765    2.2443242    1.9265978   0.59197706 
   29850  -0.11236475    2.2402201    1.9140272   0.59126228 
   29860  -0.11807164    2.2322429    1.8968329   0.59055193 
   29870  -0.12975151     2.230024    1.8496975   0.58984891 
   29880  -0.14745068    2.2395007    1.7554734   0.58916061 
   29890   -0.1699877    2.2476113    1.6614951   0.58850068 
   29900  -0.19840668    2.2351621    1.6334115   0.58788264 
   29910  -0.23317199    2.1869661    1.7225179   0.58731044 
   29920  -0.27131155    2.0961554    1.9516185   0.58677087 
   29930  -0.30695597    1.9920347    2.2240297   0.58623125 
   29940  -0.33693075    1.9230353    2.3762812   0.58565321 
   29950  -0.36216101    1.8984538    2.3708221   0.58501406 
   29960  -0.38262761    1.9080317    2.2449617   0.58431375 
   29970  -0.39728862    1.9248076    2.0960293   0.58356934 
   29980  -0.40890845    1.9352992    1.9710674   0.58280213 
   29990  -0.41813452    1.9605317    1.8058399   0.58203157 
   30000  -0.42311159    2.0018341    1.6017007   0.58128235 
Loop time of 5.01949 on 8 procs for 30000 steps with 125 atoms

Performance: 516387.221 tau/day, 5976.704 timesteps/s
76.9% CPU use with 1 MPI tasks x 8 OpenMP threads

MPI task timing breakdown:
Section |  min time  |  avg time  |  max time  |%varavg| %total
---------------------------------------------------------------
Pair    | 1.7626     | 1.7626     | 1.7626     |   0.0 | 35.12
Neigh   | 0.0099609  | 0.0099609  | 0.0099609  |   0.0 |  0.20
Comm    | 0.13345    | 0.13345    | 0.13345    |   0.0 |  2.66
Output  | 0.07097    | 0.07097    | 0.07097    |   0.0 |  1.41
Modify  | 3.0303     | 3.0303     | 3.0303     |   0.0 | 60.37
Other   |            | 0.01217    |            |       |  0.24

Nlocal:        125.000 ave         125 max         125 min
Histogram: 1 0 0 0 0 0 0 0 0 0
Nghost:        1821.00 ave        1821 max        1821 min
Histogram: 1 0 0 0 0 0 0 0 0 0
Neighs:        13894.0 ave       13894 max       13894 min
Histogram: 1 0 0 0 0 0 0 0 0 0

Total # of neighbors = 13894
Ave neighs/atom = 111.15200
Neighbor list builds = 132
Dangerous builds = 0

variable avedens equal f_aves[1]
variable avetemp equal f_aves[2]
variable avepress equal f_aves[3]
variable errdens equal sqrt(f_aves[4]-f_aves[1]*f_aves[1])
variable errtemp equal sqrt(f_aves[5]-f_aves[2]*f_aves[2])
variable errpress equal sqrt(f_aves[6]-f_aves[3]*f_aves[3])

print "Averages"
Averages
print "--------"
--------
print "Density: ${avedens}"
Density: 0.591476394065121
print "Stderr: ${errdens}"
Stderr: 0.0222598938697625
print "Temperature: ${avetemp}"
Temperature: 1.99578942560203
print "Stderr: ${errtemp}"
Stderr: 0.14620977539945
print "Pressure: ${avepress}"
Pressure: 2.00590399195237
print "Stderr: ${errpress}"
Stderr: 0.435550557462671
clear # Clear any previous runs
  using 8 OpenMP thread(s) per MPI task

package omp 8 # For parallelisation.
using multi-threaded neighbor list subroutines


### DEFINE SIMULATION BOX GEOMETRY ###
lattice sc 0.8
Lattice spacing in x,y,z = 1.0772173 1.0772173 1.0772173
region box block 0 5 0 5 0 5
create_box 1 box
Created orthogonal box = (0.0000000 0.0000000 0.0000000) to (5.3860867 5.3860867 5.3860867)
  1 by 1 by 1 MPI processor grid
create_atoms 1 box
Created 125 atoms
  create_atoms CPU = 0.000 seconds

### DEFINE PHYSICAL PROPERTIES OF ATOMS ###
mass 1 1.0
pair_style lj/cut/omp 2.5
pair_coeff 1 1 1.0 1.0
neighbor 2.0 bin

### SPECIFY THE REQUIRED THERMODYNAMIC STATE ###
variable T equal 2
variable p equal 3
variable timestep equal 0.001

log ${T}_${p}_NpT.log # specify the log file name. Can overwrite if desired
log 2_${p}_NpT.log 
log 2_3_NpT.log 
