
### SPECIFY THE NUMBER OF PRODUCTION STEPS ###
variable Nprod equal 30000

### ASSIGN ATOMIC VELOCITIES ###
velocity all create ${T} 12345 dist gaussian rot yes mom yes
velocity all create 2 12345 dist gaussian rot yes mom yes

### SPECIFY ENSEMBLE ###
timestep ${timestep}
timestep 0.001
fix nve all nve

### THERMODYNAMIC OUTPUT CONTROL ###
thermo_style custom time etotal temp press
thermo 10

### RECORD TRAJECTORY ###
dump traj all custom 1000 traj.dump id x y z

### SPECIFY TIMESTEP ###

### RUN SIMULATION TO MELT CRYSTAL ###
run 10000
Last active /omp style is pair_style lj/cut/omp
Neighbor list info ...
  update every 1 steps, delay 10 steps, check yes
  max neighbors/atom: 2000, page size: 100000
  master list distance cutoff = 4.5
  ghost atom cutoff = 4.5
  binsize = 2.25, bins = 3 3 3
  1 neighbor lists, perpetual/occasional/extra = 1 0 0
  (1) pair lj/cut/omp, perpetual
      attributes: half, newton on, omp
      pair build: half/bin/atomonly/newton/omp
      stencil: half/bin/3d/newton
      bin: standard
Per MPI rank memory allocation (min/avg/max) = 10.63 | 10.63 | 10.63 Mbytes
Time TotEng Temp Press 
           0   -2.2887711            2    1.2919632 
        0.01   -2.2887825    1.9532748    1.5517639 
        0.02   -2.2868371    1.8080777    2.3474385 
        0.03    -2.277674    1.5658171    3.6504692 
        0.04   -2.2676331    1.2756255    5.1812618 
        0.05    -2.266884    1.0584406    6.3328558 
        0.06   -2.2656257    1.0039613    6.6888145 
        0.07   -2.2645364    1.0713803    6.4250812 
        0.08   -2.2640561    1.1713436    5.9614334 
        0.09    -2.261443    1.2522302    5.5629092 
         0.1   -2.2610344    1.3099611    5.2626034 
        0.11   -2.2607639    1.3577388    5.0136815 
        0.12   -2.2599718    1.4056685    4.7716466 
        0.13   -2.2593213     1.459786    4.5044472 
        0.14    -2.258019    1.5199299    4.2097075 
        0.15   -2.2577628    1.5816577    3.9013975 
        0.16   -2.2571068    1.6427687    3.5893402 
        0.17   -2.2563257    1.7058961    3.2617541 
        0.18   -2.2560817    1.7689741    2.9309229 
        0.19   -2.2566216    1.8171431    2.6696493 
         0.2   -2.2553185    1.8361976    2.5531768 
        0.21   -2.2546588    1.8261819    2.5828574 
        0.22   -2.2554398    1.7978786    2.7111909 
        0.23    -2.255963    1.7587697     2.905555 
        0.24   -2.2567412    1.7149428     3.133795 
        0.25   -2.2560868    1.6760328    3.3509292 
        0.26   -2.2564908    1.6475086    3.5225227 
        0.27   -2.2553146    1.6247618    3.6658315 
        0.28   -2.2558134    1.6112894    3.7539791 
        0.29   -2.2562102    1.6254193    3.7078039 
         0.3   -2.2571594    1.6616144    3.5562009 
        0.31   -2.2571846    1.6859668    3.4609309 
        0.32   -2.2586076     1.674442    3.5314169 
        0.33   -2.2582943    1.6443516    3.6958834 
        0.34    -2.258056    1.6389159    3.7603206 
        0.35   -2.2592742    1.6430786    3.7906123 
        0.36    -2.258083    1.6195547    3.9589248 
        0.37   -2.2577803    1.5834632     4.187859 
        0.38   -2.2572525    1.5749322    4.2904894 
        0.39   -2.2559774    1.5999937    4.2328913 
         0.4   -2.2549532     1.629698    4.1415986 
        0.41   -2.2549476    1.6448806    4.1044579 
        0.42   -2.2555914    1.6478335    4.1136547 
        0.43   -2.2561123    1.6475642    4.1300898 
        0.44   -2.2559865    1.6475052    4.1399394 
        0.45   -2.2570376    1.6420617    4.1656856 
        0.46   -2.2584527    1.6283425    4.2189826 
        0.47   -2.2577854    1.6254259    4.2168899 
        0.48    -2.259512    1.6445533    4.1050516 
        0.49   -2.2596596     1.660738    4.0085207 
         0.5   -2.2599469    1.6515359    4.0367719 
        0.51    -2.260193    1.5995571     4.272912 
        0.52   -2.2597413    1.5280165    4.6103493 
        0.53   -2.2589786    1.4954701    4.7806582 
        0.54   -2.2614942    1.4954028    4.7968421 
        0.55   -2.2608306    1.4960562     4.805818 
        0.56   -2.2608358    1.4961239    4.8097866 
        0.57   -2.2606828     1.491444    4.8307115 
        0.58   -2.2610669    1.4952051    4.8121229 
        0.59   -2.2618515    1.5116464    4.7359204 
         0.6   -2.2612111    1.5367996    4.6230244 
        0.61    -2.261112    1.5584059    4.5246706 
        0.62   -2.2595171    1.5579533    4.5212314 
        0.63   -2.2579202    1.5602033    4.4947923 
        0.64   -2.2574254    1.5902425    4.3312787 
        0.65   -2.2577005    1.6255485    4.1366809 
        0.66   -2.2575798    1.6439919    4.0213825 
        0.67   -2.2580862     1.633749    4.0400829 
        0.68    -2.257785    1.6094989    4.1245243 
        0.69   -2.2573859    1.6050028    4.1147121 
         0.7    -2.256761    1.6268824      3.97756 
        0.71   -2.2539134    1.6499114    3.8344533 
        0.72   -2.2532538    1.6513579    3.7904032 
        0.73   -2.2546678    1.6372811     3.826658 
        0.74   -2.2553317    1.6266808    3.8666143 
        0.75   -2.2549629    1.6119513    3.9445481 
        0.76   -2.2558626    1.5761461    4.1286907 
        0.77   -2.2559587    1.5365975     4.338011 
        0.78   -2.2537342    1.5268896    4.4174261 
        0.79   -2.2538977     1.551138    4.3389014 
         0.8   -2.2522263    1.5772831    4.2558078 
        0.81   -2.2514432     1.577092    4.2943192 
        0.82   -2.2511455    1.5514423    4.4488681 
        0.83   -2.2511134     1.534247    4.5606427 
        0.84   -2.2507364    1.5575086    4.4829653 
        0.85    -2.251324    1.6040983    4.2947994 
        0.86   -2.2519877    1.6149204    4.2691634 
        0.87   -2.2520781    1.5773072    4.4677247 
        0.88   -2.2529632    1.5289717    4.7134533 
        0.89   -2.2537324    1.5019649    4.8508597 
         0.9   -2.2532145    1.5129361    4.7992833 
        0.91   -2.2529892     1.554501    4.5925088 
        0.92   -2.2531352    1.5914785    4.3980123 
        0.93   -2.2524675    1.6054158    4.3123755 
        0.94   -2.2551872    1.6061964    4.2914647 
        0.95   -2.2551892    1.6107283    4.2700681 
        0.96   -2.2549286    1.6177774    4.2452993 
        0.97    -2.252836    1.6252388     4.225077 
        0.98    -2.251404    1.6351357    4.1946758 
        0.99   -2.2512825    1.6438978    4.1696579 
           1   -2.2516814    1.6432467    4.1892882 
        1.01   -2.2525891    1.6265197    4.2814818 
        1.02   -2.2512469    1.6051414    4.3935016 
        1.03   -2.2524207    1.6144762    4.3571862 
        1.04    -2.252339    1.6540087    4.1855756 
        1.05   -2.2547086    1.6764109     4.093173 
        1.06   -2.2539191    1.6572242    4.2065788 
        1.07    -2.253634    1.6040517    4.4825558 
        1.08   -2.2534756    1.5468098    4.7749931 
        1.09   -2.2543805    1.5181803    4.9230955 
         1.1   -2.2546701    1.5287662    4.8777126 
        1.11   -2.2536736    1.5530579    4.7587467 
        1.12   -2.2535433    1.5507716    4.7485988 
        1.13   -2.2545397    1.5247869    4.8367658 
        1.14   -2.2554359    1.5187348    4.8296769 
        1.15   -2.2542722    1.5524917    4.6394338 
        1.16   -2.2549405    1.6139703    4.3176707 
        1.17   -2.2548296    1.6775943    3.9928476 
        1.18   -2.2544508    1.7157348    3.7969751 
        1.19   -2.2536671    1.7129393      3.80313 
         1.2   -2.2539089    1.6702894    4.0009365 
        1.21   -2.2535023    1.6096309    4.2880501 
        1.22   -2.2553283     1.552253    4.5557777 
        1.23   -2.2562374    1.5075511     4.759003 
        1.24   -2.2553273    1.4801019    4.8741824 
        1.25   -2.2557149    1.4682304    4.9018247 
        1.26   -2.2559577    1.4745787    4.8315894 
        1.27   -2.2560757    1.5124831    4.6050375 
        1.28   -2.2563615    1.5845571    4.2156617 
        1.29   -2.2565262    1.6653612     3.788832 
         1.3   -2.2581124    1.7192473    3.4956157 
        1.31   -2.2594022    1.7252192    3.4422051 
        1.32   -2.2579308    1.6961316    3.5765954 
        1.33   -2.2577919     1.662744    3.7493603 
        1.34   -2.2570146    1.6393675    3.8911564 
        1.35   -2.2570347      1.62097    4.0147978 
        1.36   -2.2555864    1.5923922    4.1829603 
        1.37    -2.256079    1.5648405     4.333202 
        1.38   -2.2577983    1.5587644     4.373509 
        1.39   -2.2567788    1.5565451     4.390211 
         1.4   -2.2559706    1.5387582    4.4664299 
        1.41   -2.2561735    1.5326769    4.4776337 
        1.42   -2.2577739    1.5839083    4.2209275 
        1.43    -2.257049    1.6621966    3.8416692 
        1.44    -2.256136    1.7087228    3.6095551 
        1.45   -2.2540224    1.7149756    3.5755359 
        1.46   -2.2535021    1.7015861    3.6473993 
        1.47   -2.2552198    1.6721275    3.8052343 
        1.48   -2.2555995    1.6153217     4.097156 
        1.49   -2.2567253    1.5486034    4.4314422 
         1.5   -2.2567098    1.5172885    4.5992834 
        1.51   -2.2547752    1.5368396    4.5263591 
        1.52   -2.2545372    1.5812528     4.322139 
        1.53    -2.255192     1.623165    4.1157559 
        1.54   -2.2559617    1.6533389    3.9580111 
        1.55   -2.2545212    1.6770818    3.8374186 
        1.56   -2.2545322    1.6945624    3.7555065 
        1.57   -2.2562402    1.6947314    3.7683612 
        1.58   -2.2561216    1.6649553    3.9409941 
        1.59   -2.2583427    1.5964511    4.3000811 
         1.6   -2.2589248    1.5029994    4.7733967 
        1.61   -2.2574527    1.4582709    5.0187504 
        1.62    -2.257529    1.4925308    4.8911648 
        1.63   -2.2554862    1.5371313    4.7081563 
        1.64     -2.25495    1.5409084    4.7024358 
        1.65   -2.2547689    1.5137465    4.8317903 
        1.66   -2.2525224    1.5040998    4.8746071 
        1.67    -2.252929    1.5393471    4.6935149 
        1.68   -2.2534792    1.6049405    4.3608557 
        1.69   -2.2529777    1.6696737    4.0313936 
         1.7   -2.2536332    1.7077896    3.8301907 
        1.71   -2.2541409    1.7098437    3.8071195 
        1.72   -2.2536053    1.6871671    3.9107032 
        1.73   -2.2545078    1.6551018    4.0620338 
        1.74   -2.2558048     1.626931    4.1972519 
        1.75   -2.2550326    1.6105781    4.2819866 
        1.76   -2.2544009    1.5996301    4.3418877 
        1.77   -2.2540189    1.5777224    4.4514885 
        1.78   -2.2537243    1.5441033    4.6135938 
        1.79   -2.2548905    1.5349261    4.6652607 
         1.8    -2.255849    1.5573542    4.5779433 
        1.81   -2.2551947    1.5731651    4.5258037 
        1.82   -2.2531047    1.5730208    4.5561885 
        1.83   -2.2537565    1.5584889    4.6567398 
        1.84   -2.2533649    1.5287424    4.8316293 
        1.85   -2.2541436    1.4844727    5.0621056 
        1.86   -2.2548991    1.4367379    5.2834995 
        1.87   -2.2551305    1.4178192    5.3379542 
        1.88    -2.256221    1.4520456    5.1137892 
        1.89   -2.2545705    1.4989769     4.809035 
         1.9   -2.2537261    1.5217351    4.5991453 
        1.91   -2.2525442    1.5658517    4.3019197 
        1.92   -2.2529785    1.6364386    3.9027121 
        1.93   -2.2522153    1.6868541      3.62364 
        1.94   -2.2510343    1.6883014    3.5999818 
        1.95   -2.2514015    1.6441212    3.8119094 
        1.96   -2.2528167    1.5799295    4.1344563 
        1.97   -2.2521491    1.5234366    4.4325718 
        1.98   -2.2520081    1.5000842     4.576659 
        1.99   -2.2528186    1.5216966    4.5137038 
           2   -2.2526125    1.5579557    4.3910681 
        2.01   -2.2523473    1.5599825    4.4291603 
        2.02   -2.2521676    1.5332282    4.5965964 
        2.03   -2.2524171    1.5241746    4.6715711 
        2.04    -2.253604    1.5477286    4.5759328 
        2.05   -2.2532228    1.5907418    4.3743563 
        2.06   -2.2525882    1.6349993     4.157056 
        2.07   -2.2527116    1.6607327    4.0207775 
        2.08   -2.2526897    1.6692587    3.9673582 
        2.09   -2.2528198    1.6773752    3.9241375 
         2.1    -2.254014    1.6836009    3.8959883 
        2.11   -2.2542755    1.6725241    3.9527906 
        2.12    -2.252955     1.648606    4.0727015 
        2.13    -2.252047    1.6291857    4.1710759 
        2.14   -2.2515386    1.6120947     4.253474 
        2.15   -2.2517846    1.5875154    4.3588819 
        2.16   -2.2516341    1.5683666    4.4277418 
        2.17   -2.2517701    1.5725585    4.3761757 
        2.18   -2.2513822     1.595815    4.2251691 
        2.19   -2.2508588    1.6296515    4.0195747 
         2.2   -2.2524328    1.6703686    3.7856732 
        2.21   -2.2508822    1.7079889    3.5907461 
        2.22   -2.2518117    1.7219136     3.527792 
        2.23   -2.2524483    1.6983993    3.6635062 
        2.24   -2.2539931    1.6521899    3.9225851 
        2.25   -2.2542548    1.6053973    4.1971692 
        2.26   -2.2543801    1.5647838    4.4409584 
        2.27   -2.2531947    1.5379039    4.6113195 
        2.28   -2.2534704    1.5324103    4.6648911 
        2.29   -2.2544019    1.5366688    4.6550194 
         2.3   -2.2546516    1.5368149    4.6478134 
        2.31   -2.2565783    1.5431411    4.5956304 
        2.32   -2.2565952    1.5773567    4.4121343 
        2.33   -2.2564992    1.6217056    4.1808375 
        2.34   -2.2565021    1.6409024    4.0670695 
        2.35   -2.2553139    1.6280894    4.1083908 
        2.36   -2.2558304    1.5971295    4.2383407 
        2.37     -2.25465    1.5574026    4.4164429 
        2.38   -2.2522643    1.5244821    4.5661831 
        2.39   -2.2517559    1.5333012    4.5244407 
         2.4   -2.2537661    1.5706899    4.3499713 
        2.41   -2.2540441     1.584111    4.2897698 
        2.42   -2.2553325    1.5483793    4.4573149 
        2.43   -2.2550272    1.4804389    4.7774818 
        2.44   -2.2544767    1.4236444    5.0447755 
        2.45   -2.2552605    1.4074792     5.115494 
        2.46   -2.2559175    1.4323093    4.9860523 
        2.47   -2.2572402    1.4878556     4.705447 
        2.48   -2.2572635     1.552939    4.3803287 
        2.49   -2.2574053    1.6029718    4.1273475 
         2.5   -2.2560947    1.6236597    4.0188886 
        2.51   -2.2568494    1.6228205    4.0157287 
        2.52   -2.2550267    1.6256255     4.011112 
        2.53   -2.2560942    1.6290687    4.0050852 
        2.54   -2.2556964    1.6140185     4.084078 
        2.55   -2.2542405    1.5856259    4.2180802 
        2.56    -2.255125    1.5669752    4.2910359 
        2.57    -2.255921    1.5848209    4.1864997 
        2.58   -2.2566231    1.6255139    3.9729753 
        2.59   -2.2563783    1.6450687    3.8590838 
         2.6   -2.2558417     1.625945    3.9295902 
        2.61   -2.2563296    1.5840208    4.1095365 
        2.62   -2.2582641    1.5546187    4.2341334 
        2.63   -2.2572521    1.5565328    4.2233342 
        2.64   -2.2576689    1.5625984    4.1915189 
        2.65   -2.2577956    1.5468931    4.2591223 
        2.66   -2.2572363    1.5147011    4.4009519 
        2.67   -2.2574571    1.5047964    4.4369223 
        2.68   -2.2576333    1.5501456    4.2233976 
        2.69   -2.2578189    1.6098799    3.9514073 
         2.7   -2.2562491    1.6278308    3.8862759 
        2.71   -2.2542471    1.6010731    4.0429627 
        2.72   -2.2552664    1.5692291    4.2326691 
        2.73    -2.255282    1.5590307    4.3328099 
        2.74   -2.2558212    1.5602997    4.3811144 
        2.75   -2.2556947    1.5577942    4.4479114 
        2.76    -2.254942    1.5425275    4.5744474 
        2.77   -2.2541566      1.49306     4.848384 
        2.78   -2.2551191    1.4230037     5.190961 
        2.79   -2.2550835    1.4095256    5.2525108 
         2.8   -2.2547795    1.4811687    4.9102184 
        2.81    -2.255348    1.5584028    4.5342039 
        2.82    -2.255197    1.5820673    4.4115844 
        2.83   -2.2562139    1.5598693    4.5133362 
        2.84   -2.2561968    1.5184635    4.7154203 
        2.85   -2.2568246    1.4826972    4.8886333 
        2.86   -2.2553906    1.4809051    4.9009728 
        2.87    -2.255675    1.5142683    4.7393284 
        2.88    -2.254506    1.5594693    4.5168741 
        2.89   -2.2541276    1.6009887    4.3064707 
         2.9   -2.2526846    1.6260753    4.1720367 
        2.91   -2.2520122    1.6372362     4.100914 
        2.92   -2.2518663    1.6509808    4.0209292 
        2.93   -2.2521545    1.6762449    3.8962261 
        2.94   -2.2529489    1.6900603    3.8331686 
        2.95   -2.2537175    1.6802486    3.8906189 
        2.96    -2.253456    1.6570514    4.0249107 
        2.97   -2.2548794    1.6249174    4.2049506 
        2.98   -2.2557708    1.5998915    4.3531579 
        2.99   -2.2568233    1.6019354    4.3718389 
           3   -2.2555471    1.6221947    4.3021311 
        3.01   -2.2560807    1.6349928    4.2554775 
        3.02   -2.2562034     1.627156      4.29845 
        3.03   -2.2569715    1.6078036    4.3886255 
        3.04   -2.2576191    1.5942366    4.4460893 
        3.05   -2.2573723     1.593626    4.4376973 
        3.06    -2.257237    1.5941413    4.4130612 
        3.07   -2.2572139     1.599557    4.3544485 
        3.08   -2.2570762    1.6285228    4.1786817 
        3.09   -2.2554029    1.6838884    3.8798979 
         3.1   -2.2555584    1.7427682    3.5667122 
        3.11   -2.2550341    1.7788038    3.3738638 
        3.12   -2.2551654    1.7875331    3.3277076 
        3.13   -2.2552904    1.7701148    3.4225682 
        3.14   -2.2554086    1.7341958    3.6151049 
        3.15   -2.2573701    1.6930232    3.8323279 
        3.16   -2.2572401    1.6452395    4.0756651 
        3.17   -2.2564355    1.5960689    4.3107218 
        3.18   -2.2571967    1.5686751    4.4258767 
        3.19   -2.2564176    1.5856658    4.3294327 
         3.2   -2.2558257    1.6378191    4.0740011 
        3.21   -2.2553434    1.6692494    3.9217749 
        3.22   -2.2530897    1.6442966    4.0382095 
        3.23   -2.2542157    1.5954985     4.262675 
        3.24   -2.2522675    1.5708627    4.3791236 
        3.25   -2.2530568    1.5688533    4.3761919 
        3.26   -2.2529301    1.5807892    4.3031743 
        3.27   -2.2545266    1.5943297    4.2221996 
        3.28   -2.2543737     1.584106    4.2579802 
        3.29   -2.2539589    1.5639186    4.3489324 
         3.3   -2.2550115     1.554035    4.3970985 
        3.31   -2.2556466    1.5565264    4.3876355 
        3.32   -2.2550188    1.5842855    4.2633593 
        3.33   -2.2555742    1.6149572    4.1207323 
        3.34   -2.2537145    1.6216582    4.0853505 
        3.35   -2.2529188    1.6296211    4.0422871 
        3.36   -2.2547658     1.648552    3.9478026 
        3.37   -2.2551492    1.6641113    3.8764576 
        3.38   -2.2554085    1.6807961    3.8142654 
        3.39   -2.2552964    1.7011976    3.7557531 
         3.4   -2.2567461    1.7075363    3.7764091 
        3.41   -2.2571146    1.6888612    3.9228217 
        3.42   -2.2569668    1.6658243     4.093872 
        3.43    -2.256607    1.6516583    4.2243547 
        3.44   -2.2571323     1.625197    4.4028839 
        3.45    -2.257648    1.5802841     4.655028 
        3.46    -2.257628     1.526934    4.9281385 
        3.47   -2.2577234    1.4933309    5.0837818 
        3.48   -2.2585335    1.5132529    4.9664258 
        3.49   -2.2584397    1.5644666    4.6837772 
         3.5   -2.2576526    1.6138252    4.4012544 
        3.51   -2.2584659    1.6515009    4.1784211 
        3.52   -2.2584487    1.6558953    4.1205467 
        3.53   -2.2576078    1.6466237    4.1377007 
        3.54   -2.2564614    1.6680164    4.0299793 
        3.55   -2.2559685    1.6946763    3.9061101 
        3.56   -2.2562061    1.6924633    3.9177949 
        3.57   -2.2556584    1.6762643    4.0005926 
        3.58   -2.2557943    1.6671553    4.0540596 
        3.59   -2.2550167    1.6602645    4.0976676 
         3.6   -2.2567114    1.6462201    4.1651679 
        3.61   -2.2564529     1.624808     4.262442 
        3.62   -2.2567128     1.596378    4.3798425 
        3.63    -2.257086    1.5681951    4.4816703 
        3.64   -2.2566876    1.5561445      4.49767 
        3.65   -2.2563003    1.5665549    4.4009819 
        3.66   -2.2569618    1.5949248    4.2167079 
        3.67   -2.2573833    1.6276511    4.0174334 
        3.68    -2.256738    1.6386575    3.9279079 
        3.69   -2.2562019    1.6199461    3.9842336 
         3.7   -2.2554028    1.5869992    4.1148919 
        3.71   -2.2565815    1.5555605    4.2408327 
        3.72   -2.2569648    1.5291209     4.346076 
        3.73   -2.2546011    1.5167434    4.3898871 
        3.74   -2.2566889    1.5307087    4.3027519 
        3.75   -2.2551392    1.5691176    4.1059609 
        3.76   -2.2551625    1.6135292    3.8790985 
        3.77   -2.2569816    1.6402044    3.7349263 
        3.78    -2.257743     1.652313    3.6708548 
        3.79   -2.2570994    1.6623172    3.6352169 
         3.8   -2.2551596    1.6614104    3.6661183 
        3.81   -2.2554081    1.6352133    3.8172175 
        3.82   -2.2544735    1.6001928    4.0148706 
        3.83   -2.2542397    1.5768978     4.159542 
        3.84   -2.2552704    1.5529715    4.2981581 
        3.85   -2.2536913    1.5416712    4.3745656 
        3.86   -2.2535811    1.5537249    4.3327464 
        3.87   -2.2538539     1.571053    4.2563408 
        3.88   -2.2541085    1.5814678    4.2062969 
        3.89   -2.2538411    1.5839026    4.1927511 
         3.9   -2.2539509    1.5855439    4.1827738 
        3.91   -2.2551316    1.6001235    4.1137117 
        3.92   -2.2546203    1.6210202    4.0186353 
        3.93   -2.2555315    1.6354878    3.9495506 
        3.94   -2.2555258    1.6447444    3.9071776 
        3.95   -2.2546247    1.6526368    3.8776972 
        3.96    -2.255167    1.6486267    3.9060433 
        3.97   -2.2546311    1.6191947    4.0531342 
        3.98   -2.2553836    1.5819273    4.2308374 
        3.99   -2.2548668    1.5649815    4.3117012 
           4   -2.2565648    1.5693514      4.28199 
        4.01    -2.257222    1.5935578    4.1588709 
        4.02    -2.256464    1.6276191    3.9988657 
        4.03   -2.2577834    1.6449329     3.926069 
        4.04    -2.256613    1.6291762    4.0258335 
        4.05   -2.2560354    1.5890304    4.2483735 
        4.06   -2.2548743    1.5774491    4.3526124 
        4.07    -2.254409    1.5850368    4.3698906 
        4.08   -2.2543684    1.5613928    4.5157258 
        4.09   -2.2539328    1.5343031    4.6620595 
         4.1   -2.2536822    1.5425206    4.6293659 
        4.11   -2.2561866    1.5797674    4.4412148 
        4.12   -2.2560601    1.6246682    4.2109604 
        4.13   -2.2550291    1.6666304    3.9987651 
        4.14   -2.2550478    1.6895355    3.8859286 
        4.15   -2.2553077    1.6754627    3.9576238 
        4.16   -2.2546226    1.6259309    4.2028142 
        4.17   -2.2542002    1.5723971    4.4683219 
        4.18   -2.2529021    1.5438146     4.618079 
        4.19    -2.253566    1.5359965    4.6619262 
         4.2    -2.252914    1.5382827    4.6544929 
        4.21   -2.2542121    1.5489002    4.6028892 
        4.22    -2.253834    1.5701903    4.5080504 
        4.23   -2.2543838    1.5872861    4.4355635 
        4.24   -2.2556754    1.5762792    4.4898109 
        4.25   -2.2543334    1.5506629    4.6093851 
        4.26   -2.2526314    1.5439407    4.6327021 
        4.27   -2.2530249    1.5654048    4.5094288 
        4.28   -2.2516079    1.6090522    4.2788165 
        4.29   -2.2517707    1.6517615    4.0519269 
         4.3   -2.2519041    1.6603829    3.9898476 
        4.31   -2.2513477    1.6315928    4.1119943 
        4.32   -2.2515766    1.5987862    4.2629624 
        4.33   -2.2522273    1.5938707    4.2938294 
        4.34   -2.2509451    1.6186582    4.1949885 
        4.35   -2.2503087    1.6518522    4.0551028 
        4.36   -2.2493957    1.6738221    3.9645735 
        4.37   -2.2509628    1.6771897    3.9542223 
        4.38   -2.2529142    1.6599192    4.0357479 
        4.39    -2.254332    1.6316288     4.164067 
         4.4   -2.2532859    1.6110957    4.2542255 
        4.41   -2.2542128    1.6037277    4.2718703 
        4.42    -2.254869    1.6003898    4.2601572 
        4.43   -2.2557699    1.6022974    4.2129356 
        4.44   -2.2570771    1.6208759    4.0816607 
        4.45   -2.2556483    1.6546689    3.8843501 
        4.46   -2.2555243     1.694434    3.6653603 
        4.47   -2.2546295    1.7281263    3.4909766 
        4.48   -2.2553067    1.7379247    3.4434116 
        4.49   -2.2553174    1.7034903    3.6168409 
         4.5     -2.25436    1.6259359    3.9949894 
        4.51    -2.255214    1.5585134    4.3178715 
        4.52   -2.2556269    1.5593654    4.3193678 
        4.53   -2.2560634    1.6094997    4.0863164 
        4.54    -2.255433    1.6571657    3.8650678 
        4.55   -2.2567435    1.6714875    3.8010443 
        4.56   -2.2561993    1.6460356    3.9292239 
        4.57   -2.2557797    1.6058625    4.1264401 
        4.58   -2.2559031     1.583132     4.240164 
        4.59   -2.2548768    1.5856861    4.2362703 
         4.6   -2.2552903     1.594264      4.20144 
        4.61   -2.2551517     1.585786    4.2473392 
        4.62   -2.2532997    1.5636589     4.361418 
        4.63   -2.2536965    1.5469744    4.4480016 
        4.64   -2.2530561    1.5362105     4.503258 
        4.65   -2.2521446    1.5244962    4.5512807 
        4.66   -2.2520005    1.5159562    4.5694549 
        4.67   -2.2522447    1.5289607     4.477946 
        4.68   -2.2526583    1.5752056    4.2320647 
        4.69   -2.2507085    1.6310218      3.94949 
         4.7   -2.2499208    1.6784699     3.714395 
        4.71   -2.2518946    1.7103234     3.566149 
        4.72   -2.2525594     1.709591    3.5931458 
        4.73   -2.2537326    1.6653194    3.8417476 
        4.74   -2.2532009    1.5839105    4.2765347 
        4.75   -2.2519829    1.4890743    4.7686772 
        4.76   -2.2519604    1.4332574    5.0630784 
        4.77   -2.2525512    1.4396422    5.0513863 
        4.78   -2.2528153    1.4578041    4.9585301 
        4.79   -2.2522465    1.4803416    4.8242381 
         4.8   -2.2530679    1.5363934    4.5267735 
        4.81   -2.2537542    1.5939384    4.2215139 
        4.82   -2.2547859    1.6180226    4.0737223 
        4.83   -2.2559316    1.6185193    4.0432083 
        4.84   -2.2551458    1.6241904    4.0008455 
        4.85    -2.254258    1.6446996    3.8958983 
        4.86   -2.2566117    1.6599902    3.8103647 
        4.87   -2.2565719    1.6673763    3.7673677 
        4.88   -2.2559462    1.6888656    3.6725276 
        4.89   -2.2562218    1.6980532    3.6416241 
         4.9   -2.2552717    1.6761716    3.7567455 
        4.91   -2.2538036    1.6517888    3.8794418 
        4.92   -2.2542042    1.6538516    3.8672532 
        4.93   -2.2529195    1.6742704    3.7614273 
        4.94   -2.2535731    1.6925319    3.6579318 
        4.95   -2.2523951    1.7023092    3.6044592 
        4.96   -2.2527929    1.7029485    3.6075036 
        4.97   -2.2526662    1.6881108    3.6995077 
        4.98   -2.2520038    1.6547872    3.8863398 
        4.99    -2.251209    1.6165959    4.0943926 
           5   -2.2508205    1.5883841    4.2440129 
        5.01   -2.2509429    1.5750248    4.3057293 
        5.02   -2.2519948    1.5857157    4.2429684 
        5.03   -2.2522808    1.6153288    4.0949598 
        5.04    -2.253081    1.6365352    3.9935956 
        5.05   -2.2539793    1.6300246    4.0291457 
        5.06   -2.2547496    1.6063172    4.1517478 
        5.07   -2.2564376    1.5767219    4.3007373 
        5.08   -2.2557659    1.5559684    4.4084758 
        5.09   -2.2552508    1.5618296    4.3896947 
         5.1   -2.2533178    1.5886878    4.2735558 
        5.11   -2.2538475    1.6133607    4.1591616 
        5.12   -2.2546097    1.6277868     4.086363 
        5.13   -2.2553972    1.6432276    4.0055391 
        5.14    -2.255145    1.6558302    3.9370078 
        5.15   -2.2559353    1.6560714    3.9246708 
        5.16   -2.2548968    1.6357995    4.0148253 
        5.17   -2.2542287    1.5939694    4.2104039 
        5.18   -2.2547571    1.5481735    4.4291736 
        5.19   -2.2547451    1.5031155    4.6399407 
         5.2   -2.2537552    1.4903996    4.6872145 
        5.21   -2.2534348    1.5698752    4.3014232 
        5.22   -2.2537512    1.6826746    3.7515631 
        5.23   -2.2527131    1.7583213    3.3758678 
        5.24   -2.2519152    1.7757123    3.2849449 
        5.25   -2.2512304    1.7464779    3.4316672 
        5.26    -2.252632    1.7028019    3.6619091 
        5.27   -2.2513348    1.6743374    3.8408491 
        5.28   -2.2516172    1.6565582     3.973802 
        5.29   -2.2527869    1.6326843     4.131835 
         5.3   -2.2525019    1.6110227    4.2774971 
        5.31   -2.2523846     1.612059    4.3135172 
        5.32   -2.2529334     1.626004    4.2815038 
        5.33   -2.2517678    1.6262788    4.3058384 
        5.34   -2.2516204    1.6057377    4.4158298 
        5.35   -2.2511851    1.5876095    4.5066653 
        5.36   -2.2502982    1.6092993    4.4103409 
        5.37    -2.252155    1.6471777    4.2279296 
        5.38   -2.2518944    1.6624645    4.1468332 
        5.39   -2.2503162     1.648078    4.2036629 
         5.4    -2.250818     1.614582    4.3455237 
        5.41   -2.2509412    1.5814817    4.4852608 
        5.42   -2.2496412    1.5599455    4.5687841 
        5.43    -2.249252    1.5503347     4.585531 
        5.44   -2.2518635    1.5551152    4.5200685 
        5.45    -2.253171    1.5749048    4.3803087 
        5.46   -2.2529149    1.6072897    4.1858096 
        5.47   -2.2534744    1.6421672     3.989283 
        5.48   -2.2543935     1.648652    3.9357243 
        5.49   -2.2540924    1.6266861    4.0290115 
         5.5   -2.2534311    1.6123765     4.103142 
        5.51   -2.2526543    1.6178517    4.0962477 
        5.52   -2.2529215    1.6341959    4.0421904 
        5.53    -2.252516    1.6516122    3.9866377 
        5.54   -2.2534357    1.6740695    3.9119695 
        5.55   -2.2530624    1.6938306    3.8612194 
        5.56   -2.2533278    1.6929629    3.9147241 
        5.57   -2.2530595    1.6663031     4.096811 
        5.58   -2.2523925    1.6240033    4.3546258 
        5.59   -2.2527695    1.5837307     4.595193 
         5.6   -2.2509427    1.5646369    4.7296938 
        5.61   -2.2522859    1.5666477       4.7492 
        5.62   -2.2529453    1.5599276    4.7938492 
        5.63   -2.2532971    1.5415893    4.8758218 
        5.64   -2.2514675    1.5462076    4.8445613 
        5.65    -2.251754    1.5787043    4.6750017 
        5.66   -2.2525533    1.6178184    4.4764161 
        5.67   -2.2527195    1.6408435    4.3664537 
        5.68   -2.2519271    1.6179759    4.4815366 
        5.69   -2.2522736    1.5576878    4.7717062 
         5.7   -2.2531482    1.5077141     5.010043 
        5.71   -2.2526401    1.5073395    5.0130575 
        5.72   -2.2521448    1.5460504    4.8217012 
        5.73   -2.2513628     1.594425    4.5722166 
        5.74   -2.2517607    1.6373582    4.3385105 
        5.75   -2.2521504    1.6648174    4.1743479 
        5.76   -2.2525288     1.675943     4.088189 
        5.77   -2.2534347    1.6805505    4.0382688 
        5.78    -2.254886    1.6839935    4.0037132 
        5.79   -2.2542633     1.673429    4.0491956 
         5.8    -2.254393    1.6320751     4.244198 
        5.81   -2.2538378    1.5705598    4.5341612 
        5.82   -2.2548571    1.5355338    4.6944138 
        5.83   -2.2550313    1.5536271    4.6036434 
        5.84   -2.2557139    1.5897485     4.419678 
        5.85   -2.2561032     1.609622    4.3076143 
        5.86   -2.2567363    1.6053294    4.3081887 
        5.87   -2.2567227    1.5882568    4.3708112 
        5.88   -2.2565856     1.569592    4.4388224 
        5.89   -2.2577546    1.5580979    4.4660163 
         5.9   -2.2574756    1.5646066    4.4065454 
        5.91     -2.25723    1.6033179    4.1984583 
        5.92   -2.2577905    1.6585194    3.9179312 
        5.93   -2.2561102    1.6930095    3.7443506 
        5.94   -2.2575318    1.6899551    3.7489547 
        5.95   -2.2560806    1.6628951    3.8776357 
        5.96   -2.2552929    1.6330837     4.020544 
        5.97   -2.2564681    1.6115828    4.1170223 
        5.98   -2.2561953    1.6064699    4.1335011 
        5.99   -2.2568873    1.6198053    4.0634997 
           6     -2.25543    1.6218246    4.0503265 
        6.01   -2.2565932    1.6226311    4.0496585 
        6.02   -2.2561034    1.6278731    4.0465078 
        6.03   -2.2551861    1.6114425    4.1523992 
        6.04   -2.2550416    1.5755566    4.3510413 
        6.05   -2.2550436    1.5348924    4.5679614 
        6.06   -2.2567165    1.4988316     4.744409 
        6.07   -2.2564357    1.4976153    4.7442351 
        6.08   -2.2558366    1.5426052    4.5176592 
        6.09   -2.2574155    1.5879651    4.2726262 
         6.1   -2.2584424    1.6104263    4.1281417 
        6.11   -2.2570057    1.6156935    4.0688313 
        6.12   -2.2563305    1.6063529    4.0774722 
        6.13   -2.2576141    1.6049054    4.0509696 
        6.14   -2.2560799    1.6283298    3.9243654 
        6.15   -2.2553249    1.6485897    3.8228525 
        6.16   -2.2551778    1.6373135    3.8784661 
        6.17   -2.2559571    1.6067483     4.036065 
        6.18   -2.2562109    1.5684702    4.2368053 
        6.19   -2.2552614    1.5395942    4.3940651 
         6.2   -2.2543399     1.554503    4.3493424 
        6.21   -2.2533438     1.618009    4.0886723 
        6.22   -2.2530004    1.6788006    3.8519512 
        6.23   -2.2517029    1.6862773    3.8773965 
        6.24   -2.2516672    1.6322208    4.1946305 
        6.25   -2.2515998    1.5596196    4.5974228 
        6.26   -2.2508365    1.5309276    4.7935762 
        6.27   -2.2510191    1.5356436    4.8185697 
        6.28   -2.2510104    1.5290186    4.8714165 
        6.29   -2.2525391    1.5159283    4.9268267 
         6.3   -2.2529195    1.5306444    4.8351769 
        6.31   -2.2521421    1.5850775    4.5468045 
        6.32    -2.252704    1.6674561    4.1235661 
        6.33   -2.2529907    1.7340677    3.7783518 
        6.34   -2.2545415    1.7547836    3.6540671 
        6.35   -2.2536085    1.7419188    3.7046031 
        6.36   -2.2532054    1.7166166    3.8243664 
        6.37   -2.2547744    1.6918858    3.9441896 
        6.38   -2.2539818    1.6690109    4.0581147 
        6.39   -2.2530679    1.6573003    4.1193729 
         6.4   -2.2534871     1.656499    4.1276657 
        6.41   -2.2532038    1.6475157    4.1699213 
        6.42   -2.2546244    1.6447885    4.1791919 
        6.43   -2.2542661     1.656093    4.1288587 
        6.44   -2.2537474    1.6523131    4.1471783 
        6.45   -2.2551699    1.6245193    4.2710886 
        6.46   -2.2548866    1.5873304    4.4366684 
        6.47   -2.2530386    1.5655902    4.5262065 
        6.48   -2.2520107    1.5765889    4.4564803 
        6.49   -2.2529531    1.6044728    4.2987383 
         6.5   -2.2524351      1.62081    4.1900702 
        6.51   -2.2543864     1.618644    4.1596666 
        6.52   -2.2531968    1.6071082    4.1782038 
        6.53   -2.2533281    1.6009188    4.1777667 
        6.54   -2.2536243    1.5980422    4.1754297 
        6.55   -2.2525908     1.572804    4.2898503 
        6.56   -2.2533356    1.5223441    4.5231003 
        6.57    -2.251594    1.4895044    4.6792146 
        6.58    -2.252656    1.5162285    4.5530152 
        6.59   -2.2542788    1.5810796    4.2431423 
         6.6   -2.2545421      1.62691    4.0138983 
        6.61   -2.2536157    1.6399589    3.9359192 
        6.62   -2.2545367    1.6263159    3.9799199 
        6.63   -2.2541256    1.5886714    4.1336426 
        6.64   -2.2539517    1.5582651    4.2507641 
        6.65   -2.2542624     1.570183    4.1773331 
        6.66   -2.2545467    1.5881969    4.0775857 
        6.67   -2.2551815    1.5866721    4.0702695 
        6.68    -2.255037    1.5771214    4.1084822 
        6.69   -2.2545002    1.5757794    4.1167796 
         6.7   -2.2550387    1.5905047    4.0555404 
        6.71   -2.2566241    1.6083473    3.9818797 
        6.72   -2.2551817    1.6115223    3.9803791 
        6.73   -2.2556843    1.6052542    4.0170231 
        6.74   -2.2552837    1.6074895    4.0113684 
        6.75   -2.2558019    1.6301203    3.9046616 
        6.76   -2.2554273    1.6758171    3.6914492 
        6.77   -2.2567481    1.7293974    3.4441152 
        6.78   -2.2566396    1.7702132    3.2730745 
        6.79   -2.2565375    1.7727162    3.3012101 
         6.8   -2.2570351    1.7173752    3.6138145 
        6.81   -2.2561976    1.6320568    4.0759317 
        6.82   -2.2544924     1.574035    4.4112534 
        6.83   -2.2543934    1.5611775     4.518505 
        6.84   -2.2545479     1.567198    4.5103976 
        6.85   -2.2541445    1.5691944    4.4940232 
        6.86   -2.2529596    1.5756578    4.4402335 
        6.87   -2.2537406    1.5964858    4.3076945 
        6.88   -2.2553174    1.6285886     4.120479 
        6.89   -2.2553339    1.6581856    3.9543162 
         6.9   -2.2549509    1.6663938    3.9000364 
        6.91   -2.2546583    1.6509657    3.9695211 
        6.92     -2.25452    1.6406877     4.034011 
        6.93    -2.254018    1.6426093    4.0593162 
        6.94   -2.2525982    1.6348258    4.1399255 
        6.95   -2.2532394    1.6035013    4.3263906 
        6.96   -2.2522768    1.5641373    4.5431552 
        6.97   -2.2518912    1.5596471    4.5863108 
        6.98   -2.2528516    1.5855264    4.4728746 
        6.99   -2.2519428     1.597493    4.4119624 
           7   -2.2515302    1.5823486    4.4673343 
        7.01   -2.2522817    1.5579581    4.5598386 
        7.02   -2.2538443    1.5532237    4.5593646 
        7.03   -2.2526912    1.5718034     4.454382 
        7.04   -2.2533496    1.5954396    4.3228228 
        7.05   -2.2532262    1.6162988    4.2130255 
        7.06   -2.2529828    1.6262287    4.1700785 
        7.07    -2.253268    1.6093386     4.270211 
        7.08   -2.2532761    1.5488373    4.5869419 
        7.09   -2.2533379    1.4557461    5.0566112 
         7.1   -2.2539581    1.4050077    5.3308859 
        7.11    -2.254045    1.4264839    5.2713742 
        7.12    -2.253009    1.4505547    5.1852859 
        7.13   -2.2544008    1.4596158    5.1501998 
        7.14   -2.2550629    1.4834605     5.043718 
        7.15   -2.2543149    1.5152922    4.9021527 
        7.16   -2.2548263    1.5267254    4.8537739 
        7.17    -2.255866    1.5237249    4.8773546 
        7.18   -2.2550659    1.5131689    4.9389627 
        7.19   -2.2551754    1.5107959    4.9534555 
         7.2   -2.2566348    1.5321968    4.8456763 
        7.21    -2.256645     1.558023    4.7074676 
        7.22    -2.256497    1.5780285    4.5896698 
        7.23   -2.2552067    1.6021732    4.4581866 
        7.24   -2.2545858    1.6161721    4.3769518 
        7.25   -2.2541669    1.5975905     4.441136 
        7.26   -2.2526745    1.5782691    4.5016855 
        7.27   -2.2533678    1.6049797    4.3404701 
        7.28   -2.2547076    1.6472735    4.0971072 
        7.29   -2.2533894    1.6668241    3.9575863 
         7.3   -2.2536254     1.667493    3.9055145 
        7.31   -2.2542614    1.6695395    3.8530253 
        7.32    -2.254791    1.6865098    3.7416049 
        7.33   -2.2532542    1.7102293    3.6162801 
        7.34   -2.2544391    1.7146393    3.5898853 
        7.35   -2.2540262     1.690251    3.7103403 
        7.36   -2.2553134      1.65873    3.8698205 
        7.37    -2.256753    1.6397533    3.9762753 
        7.38   -2.2565025    1.6301038    4.0428469 
        7.39   -2.2571506    1.6204317    4.1075908 
         7.4   -2.2549232    1.6159798    4.1577023 
        7.41   -2.2550796    1.6200026    4.1761127 
        7.42   -2.2565426    1.6084871    4.2728504 
        7.43    -2.257965    1.5592109     4.542103 
        7.44   -2.2590776    1.4948345    4.8688968 
        7.45    -2.259593     1.477214    4.9665749 
        7.46   -2.2603082    1.5132145    4.8003373 
        7.47   -2.2599346    1.5484867    4.6206495 
        7.48   -2.2589955    1.5606938    4.5360601 
        7.49   -2.2593416    1.5726311    4.4447202 
         7.5   -2.2584441    1.6206129    4.1898293 
        7.51   -2.2580904    1.6876326    3.8476063 
        7.52   -2.2569261    1.7313243    3.6187238 
        7.53   -2.2567908    1.7353285    3.5847155 
        7.54   -2.2578169    1.7032858    3.7325242 
        7.55   -2.2588352    1.6535436     3.976287 
        7.56   -2.2563558    1.6105404    4.2036068 
        7.57   -2.2555856    1.5778562    4.3810165 
        7.58   -2.2547901    1.5476795     4.538092 
        7.59   -2.2537252    1.5317874    4.6173358 
         7.6   -2.2533496    1.5470254    4.5413023 
        7.61   -2.2529843    1.5811901    4.3707057 
        7.62   -2.2548377    1.6057174     4.239899 
        7.63   -2.2536652    1.5978231    4.2651773 
        7.64   -2.2544137    1.5609261    4.4192316 
        7.65    -2.254655    1.5291372    4.5445732 
        7.66   -2.2536198    1.5245182    4.5376542 
        7.67   -2.2538997    1.5387063     4.433687 
        7.68   -2.2542907    1.5524362     4.329387 
        7.69   -2.2545419    1.5624015    4.2501724 
         7.7   -2.2558568    1.5741652     4.176638 
        7.71    -2.255868     1.579393     4.152262 
        7.72   -2.2544348    1.5668607    4.2266673 
        7.73   -2.2533749    1.5376127    4.3870299 
        7.74    -2.253896     1.506769     4.555297 
        7.75   -2.2545459    1.4812286    4.6916443 
        7.76     -2.25662    1.4681486    4.7524673 
        7.77   -2.2555669    1.4835149    4.6706872 
        7.78   -2.2553396    1.5300945    4.4332827 
        7.79   -2.2556262    1.5721674    4.2089854 
         7.8   -2.2557344    1.5802189    4.1383935 
        7.81   -2.2555586    1.5744911    4.1349632 
        7.82    -2.255297    1.5947599    4.0212791 
        7.83   -2.2554719    1.6399999    3.8028683 
        7.84   -2.2554823    1.6697304    3.6649554 
        7.85    -2.257154    1.6689122     3.675431 
        7.86   -2.2570159    1.6538764    3.7669123 
        7.87   -2.2567544    1.6320327    3.8991513 
        7.88   -2.2555654    1.6051755    4.0603411 
        7.89   -2.2545128    1.5858015    4.1889171 
         7.9   -2.2539959    1.5805752    4.2507455 
        7.91   -2.2532216    1.5842935    4.2693455 
        7.92   -2.2525811    1.5856647    4.2950644 
        7.93   -2.2524379    1.5759318    4.3644122 
        7.94   -2.2530706    1.5674688    4.4171925 
        7.95   -2.2550302    1.5803269    4.3581797 
        7.96    -2.254653     1.614359    4.1924281 
        7.97   -2.2549364    1.6537983    3.9916004 
        7.98   -2.2544205    1.6766832    3.8654242 
        7.99   -2.2543994    1.6769667    3.8469827 
           8    -2.253215    1.6750213    3.8543428 
        8.01   -2.2532586    1.6795804    3.8489434 
        8.02   -2.2533926    1.6608638    3.9634124 
        8.03     -2.25478     1.620684    4.1836816 
        8.04   -2.2533435    1.5999981    4.3282608 
        8.05   -2.2527221    1.6016173    4.3712295 
        8.06   -2.2513009    1.5980304    4.4346061 
        8.07   -2.2516877    1.5759746    4.5743913 
        8.08   -2.2512919    1.5459193    4.7463173 
        8.09   -2.2518013    1.5226234    4.8734763 
         8.1   -2.2507535     1.528295    4.8524366 
        8.11   -2.2506396    1.5677719    4.6581619 
        8.12   -2.2517064    1.6173595    4.4083494 
        8.13    -2.250802    1.6469852    4.2584269 
        8.14   -2.2519525    1.6443098    4.2656695 
        8.15   -2.2516802    1.6265079    4.3576001 
        8.16   -2.2517943    1.6052916      4.46874 
        8.17   -2.2537482    1.5942978    4.5281974 
        8.18   -2.2545546     1.595466    4.5317895 
        8.19   -2.2552186    1.5892393    4.5679611 
         8.2    -2.255203     1.564902    4.6847767 
        8.21   -2.2549168    1.5401178     4.796143 
        8.22   -2.2542621    1.5436814    4.7663558 
        8.23   -2.2539086    1.5792614    4.5776598 
        8.24   -2.2548719    1.6117753    4.3941564 
        8.25   -2.2561578    1.6006416    4.4080419 
        8.26   -2.2549215    1.5669883    4.5346924 
        8.27   -2.2540195     1.563462    4.5344097 
        8.28   -2.2523476    1.5850743    4.4244761 
        8.29   -2.2524751    1.6071944     4.308462 
         8.3   -2.2529997    1.6222148    4.2276351 
        8.31   -2.2540474    1.6266085    4.2059875 
        8.32   -2.2544378    1.6169056    4.2681923 
        8.33   -2.2549565    1.5941101    4.4102985 
        8.34   -2.2549487    1.5640025    4.6013574 
        8.35   -2.2553319     1.537982    4.7773785 
        8.36   -2.2528659    1.5254227    4.8907457 
        8.37   -2.2530039    1.5191676    4.9586898 
        8.38   -2.2530018    1.5110043    5.0209118 
        8.39   -2.2536478    1.5033727    5.0644865 
         8.4   -2.2539115    1.5025008    5.0616788 
        8.41   -2.2539298    1.5070059     5.018242 
        8.42   -2.2543139    1.5051423    4.9862068 
        8.43   -2.2525784    1.5064546     4.928354 
        8.44   -2.2545293    1.5431415    4.6960592 
        8.45   -2.2526065    1.6181154    4.2964473 
        8.46   -2.2531578    1.6929804    3.9022491 
        8.47   -2.2536718    1.7332016    3.6832768 
        8.48   -2.2540526    1.7389699    3.6464051 
        8.49   -2.2551011    1.7182893      3.75488 
         8.5   -2.2534014    1.6698042    4.0124395 
        8.51   -2.2518156    1.5994404    4.3741498 
        8.52   -2.2524457    1.5316393    4.7108543 
        8.53    -2.253206    1.4971621    4.8750441 
        8.54     -2.25349    1.5203934     4.759065 
        8.55   -2.2541985    1.5803445    4.4683518 
        8.56   -2.2544896    1.6198074    4.2766322 
        8.57   -2.2533064    1.6029822    4.3558008 
        8.58   -2.2539056    1.5416663    4.6445139 
        8.59   -2.2540193    1.4870331    4.9066078 
         8.6   -2.2535084    1.4618771    5.0273311 
        8.61   -2.2517951    1.4611661     5.021821 
        8.62   -2.2511339    1.4946419    4.8450872 
        8.63   -2.2499911    1.5609929    4.5155461 
        8.64    -2.251855    1.6225999    4.2095807 
        8.65   -2.2536884    1.6418264    4.1132507 
        8.66   -2.2537995     1.612835    4.2598963 
        8.67   -2.2532454     1.557714    4.5415693 
        8.68   -2.2534863    1.5133479    4.7772175 
        8.69   -2.2527151    1.4999178    4.8665585 
         8.7   -2.2507631    1.5093063    4.8384947 
        8.71   -2.2493301    1.5333689    4.7269708 
        8.72   -2.2490737    1.5665246     4.560501 
        8.73   -2.2486762    1.6017516    4.3788395 
        8.74   -2.2506325    1.6383692    4.1889114 
        8.75   -2.2514258    1.6754775    4.0086838 
        8.76   -2.2506661    1.7010515    3.9009037 
        8.77   -2.2509484    1.6918433    3.9694674 
        8.78   -2.2510731    1.6318506    4.2811429 
        8.79   -2.2520417    1.5452585    4.7062204 
         8.8   -2.2513639    1.5102813    4.8810273 
        8.81   -2.2515736    1.5516032    4.6873681 
        8.82   -2.2514923    1.5956403    4.4672622 
        8.83   -2.2521209    1.5879493    4.4795452 
        8.84   -2.2523218    1.5477275    4.6467084 
        8.85   -2.2514001    1.5279011     4.730013 
        8.86   -2.2515696    1.5384328    4.6761958 
        8.87   -2.2508044    1.5446655    4.6410186 
        8.88   -2.2515859    1.5264462    4.7109277 
        8.89   -2.2515636    1.4878053    4.8686278 
         8.9   -2.2517772    1.4574546    4.9799548 
        8.91   -2.2523372    1.4732403    4.8778022 
        8.92    -2.251847    1.5061447    4.6956497 
        8.93   -2.2522346     1.521629    4.5894242 
        8.94   -2.2519449    1.5250272    4.5426862 
        8.95   -2.2514187     1.542124    4.4439899 
        8.96   -2.2515791    1.5744002    4.2895342 
        8.97    -2.250548    1.5958104    4.2020163 
        8.98   -2.2510609    1.5937703    4.2326955 
        8.99   -2.2520661     1.585745    4.2967792 
           9   -2.2533944    1.6043433    4.2406339 
        9.01   -2.2526222    1.6347469    4.1282964 
        9.02   -2.2537919    1.6602788    4.0304194 
        9.03   -2.2543237    1.6796237    3.9637023 
        9.04   -2.2544667    1.6821137    3.9800795 
        9.05    -2.254723    1.6606284    4.1119051 
        9.06   -2.2564211    1.6222381     4.321839 
        9.07   -2.2577325    1.5714614    4.5828111 
        9.08   -2.2579648    1.5140164    4.8562824 
        9.09   -2.2580659    1.4833803    4.9804631 
         9.1    -2.257587    1.5084327     4.827682 
        9.11   -2.2597142    1.5544806    4.5587562 
        9.12   -2.2587776    1.5818057    4.3775698 
        9.13   -2.2575814    1.5998487    4.2527176 
        9.14   -2.2562901    1.6213885    4.1331465 
        9.15   -2.2560454    1.6305372    4.0886331 
        9.16   -2.2573529    1.6108334    4.1912653 
        9.17   -2.2579798    1.5644251    4.4287999 
        9.18   -2.2585985    1.5198093    4.6594371 
        9.19   -2.2589863    1.5117494    4.7143389 
         9.2    -2.258748    1.5450326    4.5660622 
        9.21   -2.2581268    1.5960511    4.3235572 
        9.22   -2.2574914     1.633313    4.1370868 
        9.23   -2.2569577    1.6391026    4.0952251 
        9.24   -2.2548444    1.6220336    4.1674444 
        9.25   -2.2556195     1.604087     4.250605 
        9.26   -2.2552433    1.5955866    4.3061689 
        9.27   -2.2556391    1.5846582    4.3825675 
        9.28   -2.2545845     1.564813    4.5080052 
        9.29    -2.252759    1.5428969      4.64473 
         9.3    -2.251833    1.5234609    4.7628321 
        9.31   -2.2527339    1.5198501    4.7975106 
        9.32   -2.2543223    1.5434927    4.7017817 
        9.33   -2.2529105    1.5760879    4.5703634 
        9.34   -2.2535799    1.5884553    4.5367332 
        9.35    -2.253319    1.5639024    4.6875363 
        9.36   -2.2535563    1.5081093    4.9903771 
        9.37    -2.254431    1.4535256    5.2846634 
        9.38   -2.2549419      1.44368    5.3624553 
        9.39   -2.2557754    1.4876839    5.1766216 
         9.4   -2.2554025    1.5391815    4.9395717 
        9.41   -2.2563279    1.5668918    4.7994307 
        9.42   -2.2550371    1.5519242    4.8534708 
        9.43   -2.2542034    1.4893806    5.1116096 
        9.44   -2.2551785     1.430395    5.3281588 
        9.45   -2.2558361    1.4420258    5.1972619 
        9.46   -2.2569356    1.5229896    4.7291607 
        9.47   -2.2576303    1.6145827     4.208891 
        9.48   -2.2567136     1.669325    3.8752768 
        9.49   -2.2572306    1.6815985    3.7634184 
         9.5   -2.2569494    1.6579711    3.8456696 
        9.51   -2.2582204    1.6210621    4.0062926 
        9.52   -2.2591282    1.6054494    4.0815842 
        9.53   -2.2597981    1.6198299    4.0230154 
        9.54    -2.259025    1.6463004    3.9106013 
        9.55   -2.2583891    1.6681461    3.8225215 
        9.56   -2.2576165    1.6679414    3.8424865 
        9.57   -2.2573392    1.6389534    4.0009167 
        9.58   -2.2575982    1.5960881    4.2283446 
        9.59   -2.2566712    1.5490844    4.4754049 
         9.6   -2.2573104    1.5119807    4.6659334 
        9.61   -2.2583429    1.4969095    4.7405499 
        9.62   -2.2576876     1.509993    4.6720474 
        9.63   -2.2569048    1.5506835    4.4612387 
        9.64   -2.2583517    1.6126107    4.1383973 
        9.65   -2.2592912    1.6812432    3.7837055 
        9.66   -2.2595707    1.7297616    3.5296497 
        9.67   -2.2579855    1.7416734     3.461378 
        9.68   -2.2571887    1.7327023    3.5087768 
        9.69   -2.2556433    1.7134401    3.6250686 
         9.7   -2.2548505     1.672667    3.8508454 
        9.71   -2.2557452     1.624177    4.1165512 
        9.72   -2.2556202    1.5888504     4.327972 
        9.73   -2.2545922    1.5652855    4.4890627 
        9.74   -2.2537115    1.5358458    4.6790308 
        9.75   -2.2537028    1.4746976    5.0101265 
        9.76   -2.2536098    1.4053446    5.3731247 
        9.77   -2.2545713    1.4037476    5.4272921 
        9.78   -2.2547372    1.4395087    5.3049409 
        9.79   -2.2561609    1.4685003    5.2004753 
         9.8   -2.2561543    1.4934617     5.109298 
        9.81   -2.2577281     1.518018    5.0078007 
        9.82   -2.2570696    1.5370248    4.9171824 
        9.83   -2.2566643    1.5579832    4.7914328 
        9.84   -2.2562706    1.5939879    4.5682284 
        9.85   -2.2556304    1.6443633    4.2558751 
        9.86   -2.2548484    1.6946671    3.9312273 
        9.87   -2.2558992    1.7348671    3.6516424 
        9.88   -2.2552545    1.7540188    3.4859589 
        9.89   -2.2561669    1.7419661      3.48313 
         9.9   -2.2562756    1.7049709    3.6197478 
        9.91   -2.2558679    1.6647739    3.7916432 
        9.92   -2.2556147    1.6407442    3.9037622 
        9.93   -2.2553788    1.6277957      3.97282 
        9.94   -2.2552584    1.6050819    4.0871107 
        9.95   -2.2556314    1.5656305    4.2722797 
        9.96    -2.256501    1.5342634    4.4127269 
        9.97   -2.2571858    1.5496784    4.3388481 
        9.98   -2.2567063    1.5869426    4.1677575 
        9.99   -2.2577244    1.6093101    4.0672428 
          10   -2.2570997    1.6285855    4.0030819 
Loop time of 0.827855 on 8 procs for 10000 steps with 125 atoms

Performance: 1043661.189 tau/day, 12079.412 timesteps/s
183.1% CPU use with 1 MPI tasks x 8 OpenMP threads

MPI task timing breakdown:
Section |  min time  |  avg time  |  max time  |%varavg| %total
---------------------------------------------------------------
Pair    | 0.51217    | 0.51217    | 0.51217    |   0.0 | 61.87
Neigh   | 0.002991   | 0.002991   | 0.002991   |   0.0 |  0.36
Comm    | 0.045856   | 0.045856   | 0.045856   |   0.0 |  5.54
Output  | 0.02093    | 0.02093    | 0.02093    |   0.0 |  2.53
Modify  | 0.24291    | 0.24291    | 0.24291    |   0.0 | 29.34
Other   |            | 0.002991   |            |       |  0.36

Nlocal:        125.000 ave         125 max         125 min
Histogram: 1 0 0 0 0 0 0 0 0 0
Nghost:        2282.00 ave        2282 max        2282 min
Histogram: 1 0 0 0 0 0 0 0 0 0
Neighs:        18980.0 ave       18980 max       18980 min
Histogram: 1 0 0 0 0 0 0 0 0 0

Total # of neighbors = 18980
Ave neighs/atom = 151.84000
Neighbor list builds = 26
Dangerous builds = 0
unfix nve
reset_timestep 0

### BRING SYSTEM TO REQUIRED STATE ###
variable tdamp equal ${timestep}*100
variable tdamp equal 0.001*100
variable pdamp equal ${timestep}*1000
variable pdamp equal 0.001*1000
fix npt all npt temp ${T} ${T} ${tdamp} iso ${p} ${p} ${pdamp}
fix npt all npt temp 2 ${T} ${tdamp} iso ${p} ${p} ${pdamp}
fix npt all npt temp 2 2 ${tdamp} iso ${p} ${p} ${pdamp}
fix npt all npt temp 2 2 0.1 iso ${p} ${p} ${pdamp}
fix npt all npt temp 2 2 0.1 iso 3 ${p} ${pdamp}
fix npt all npt temp 2 2 0.1 iso 3 3 ${pdamp}
fix npt all npt temp 2 2 0.1 iso 3 3 1
run 10000
Last active /omp style is pair_style lj/cut/omp
Per MPI rank memory allocation (min/avg/max) = 10.63 | 10.63 | 10.63 Mbytes
Time TotEng Temp Press 
          10   -2.2570997    1.6285855    4.0030819 
       10.01   -2.2531209    1.6240118    4.0794915 
       10.02   -2.2416858    1.5720036    4.4074015 
       10.03   -2.2208823    1.4926376    4.8847392 
       10.04   -2.1926894    1.4220196    5.3224059 
       10.05   -2.1560921    1.4165956    5.4524885 
       10.06   -2.1113104    1.4998781    5.1703748 
       10.07   -2.0576069    1.6217166    4.7126085 
       10.08    -1.999472     1.721716    4.3525061 
       10.09   -1.9464243     1.768326    4.2186111 
        10.1   -1.9070004    1.7573889    4.3098027 
       10.11   -1.8787985    1.7138862    4.5080907 
       10.12   -1.8566944    1.6786063    4.6314254 
       10.13   -1.8380487    1.6689409    4.6008861 
       10.14   -1.8198637    1.6917352    4.3940834 
       10.15   -1.8012399    1.7606916    3.9723279 
       10.16    -1.776988    1.8394725    3.5248087 
       10.17   -1.7517263    1.8766066      3.28346 
       10.18   -1.7245566    1.8654438    3.2843418 
       10.19   -1.7014914     1.824072     3.433747 
        10.2   -1.6788191    1.7747915    3.6274685 
       10.21   -1.6543636    1.7370569    3.7715526 
       10.22   -1.6287558     1.727351    3.7858069 
       10.23   -1.5996399    1.7532504    3.6398645 
       10.24   -1.5660353    1.8044923    3.3819571 
       10.25   -1.5283347    1.8677943    3.0755776 
       10.26   -1.4889308    1.9283051    2.7899142 
       10.27   -1.4481283    1.9707682    2.5972187 
       10.28    -1.410179    1.9897607    2.5193563 
       10.29   -1.3767876    1.9846688    2.5573452 
        10.3   -1.3473817     1.954637      2.70991 
       10.31   -1.3215708    1.9093185     2.927304 
       10.32   -1.2969234    1.8729418    3.1009698 
       10.33   -1.2734574    1.8819566    3.0784618 
       10.34   -1.2485049    1.9280783    2.8993579 
       10.35   -1.2195333    1.9690717    2.7413422 
       10.36   -1.1896344    1.9845517    2.6876493 
       10.37   -1.1614231    1.9789152    2.7204336 
       10.38   -1.1343698    1.9733156    2.7608382 
       10.39   -1.1083876    1.9736808    2.7891883 
        10.4   -1.0828856    1.9629714    2.8713859 
       10.41   -1.0597219    1.9422998    2.9969193 
       10.42   -1.0367805    1.9152378    3.1495048 
       10.43   -1.0111091    1.8657279    3.3859517 
       10.44  -0.98767919    1.8056731    3.6440018 
       10.45  -0.96329579    1.7920324    3.7100634 
       10.46   -0.9372452    1.8147882    3.6225019 
       10.47  -0.90668376    1.8515304    3.4716471 
       10.48  -0.87075481    1.9191337    3.2039524 
       10.49  -0.83297858    2.0061512    2.8675694 
        10.5  -0.79642736    2.0733288    2.6109451 
       10.51   -0.7639372    2.1117821    2.4664542 
       10.52   -0.7371626    2.1403393    2.3637459 
       10.53  -0.71466576    2.1602083    2.2999429 
       10.54  -0.70019853    2.1550656    2.3277112 
       10.55  -0.69007422    2.1229623    2.4554219 
       10.56  -0.68229021    2.0747437    2.6402165 
       10.57  -0.68105325    2.0203835    2.8331168 
       10.58  -0.68277273    1.9680344    3.0022905 
       10.59  -0.68255683    1.9239816    3.1244512 
        10.6  -0.68015169    1.9006349    3.1498429 
       10.61  -0.67293562    1.9229254    2.9944649 
       10.62  -0.66360736    1.9895731    2.6717134 
       10.63  -0.65226356    2.0550278    2.3595067 
       10.64   -0.6381782    2.0964951    2.1523447 
       10.65  -0.62636058    2.1165834    2.0406748 
       10.66  -0.61842966    2.1146581    2.0234881 
       10.67  -0.61103255    2.1166111    2.0103124 
       10.68  -0.60663974     2.127204    1.9789879 
       10.69  -0.60412764    2.1243448    2.0092382 
        10.7   -0.6055325    2.0992542    2.1290621 
       10.71  -0.61063523    2.0591752    2.3094897 
       10.72   -0.6181616    2.0233337    2.4801713 
       10.73  -0.62734354    2.0062875     2.588245 
       10.74  -0.63717772    2.0010142    2.6574811 
       10.75  -0.64699202    1.9871751    2.7564306 
       10.76  -0.65795736    1.9688161    2.8626428 
       10.77  -0.66960692    1.9817084    2.8458907 
       10.78  -0.68449867    2.0140076    2.7460147 
       10.79  -0.70123763    2.0172456    2.7403544 
        10.8  -0.72217018    1.9868242    2.8416802 
       10.81  -0.74403377    1.9635332    2.9040264 
       10.82   -0.7722823    1.9644732    2.8559968 
       10.83  -0.80215943    1.9594393    2.8134313 
       10.84  -0.83370018     1.935431    2.8288923 
       10.85  -0.86743406    1.8996085    2.8805462 
       10.86  -0.89927226    1.8586248    2.9504609 
       10.87  -0.92830869    1.8209941    3.0076588 
       10.88  -0.95513824    1.7922774    3.0292927 
       10.89  -0.97857999    1.7814035    2.9853724 
        10.9   -0.9977424    1.7969687    2.8518091 
       10.91   -1.0115226    1.8175883    2.7159639 
       10.92   -1.0216664    1.8164316    2.6809939 
       10.93   -1.0274013     1.798615    2.7334565 
       10.94     -1.02904     1.786218    2.7909583 
       10.95   -1.0244968    1.7816938    2.8412999 
       10.96   -1.0116452    1.7800807    2.8992852 
       10.97  -0.99249327     1.799654    2.8953514 
       10.98  -0.96770247     1.839038    2.8364772 
       10.99  -0.93397983    1.8834628    2.7859235 
          11  -0.89494792    1.9279059    2.7629887 
       11.01  -0.84821143    1.9655064    2.7987669 
       11.02  -0.79712061    1.9900388    2.9088894 
       11.03  -0.74365329    2.0114195    3.0471106 
       11.04  -0.68712913     2.036466    3.1790178 
       11.05  -0.62887401    2.0576441     3.320529 
       11.06  -0.57273531    2.0692449    3.4797673 
       11.07  -0.51923868    2.0858024    3.5986365 
       11.08  -0.47074913    2.1185275    3.6306151 
       11.09  -0.42752238    2.1610499    3.5961377 
        11.1  -0.39248019    2.2154239    3.4855275 
       11.11  -0.36268317    2.2713619    3.3488555 
       11.12  -0.34388444    2.2894584     3.332626 
       11.13  -0.33572428    2.2763722    3.4202763 
       11.14  -0.33726369    2.2553088    3.5284783 
       11.15  -0.34784155    2.2116188    3.7078201 
       11.16  -0.36455464    2.1164747    4.0586883 
       11.17   -0.3866553    2.0204366    4.3829837 
       11.18  -0.40973821    1.9989325    4.3969092 
       11.19  -0.43375877    2.0172732     4.220487 
        11.2  -0.46144711    2.0415202    3.9792131 
       11.21  -0.49312533    2.0919772     3.612242 
       11.22  -0.52652094    2.1309075    3.2737627 
       11.23  -0.56484309    2.1143551    3.1294635 
       11.24  -0.60573705    2.0626569    3.1094685 
       11.25  -0.65112284    2.0242461    3.0293195 
       11.26  -0.69564333    2.0216839    2.8101439 
       11.27  -0.74203158    2.0388047    2.5098421 
       11.28  -0.79045402    2.0537254    2.2154333 
       11.29  -0.84000583    2.0628555     1.950817 
        11.3  -0.89358301    2.0563795    1.7561531 
       11.31   -0.9471764    2.0271112    1.6689796 
       11.32  -0.99981998    1.9807817    1.6730874 
       11.33   -1.0498121    1.9271277    1.7359369 
       11.34   -1.0928283    1.8708106    1.8457995 
       11.35   -1.1287614      1.80799    2.0138914 
       11.36   -1.1555736    1.7475816    2.2068327 
       11.37   -1.1700078    1.7004792    2.3849334 
       11.38     -1.17511     1.669818    2.5273623 
       11.39   -1.1717313    1.6616519     2.605306 
        11.4   -1.1593028    1.6801541    2.5993381 
       11.41   -1.1416249    1.7211851    2.5172601 
       11.42   -1.1211089    1.7792716    2.3791458 
       11.43   -1.1014806    1.8384366    2.2454944 
       11.44   -1.0804818     1.871927    2.2226667 
       11.45   -1.0595626    1.8747128    2.3289191 
       11.46   -1.0368608    1.8663073    2.4927927 
       11.47   -1.0113499    1.8524125    2.6874876 
       11.48  -0.98524862    1.8387536    2.8825434 
       11.49  -0.95664147    1.8424697    3.0145366 
        11.5  -0.92503038    1.8624121    3.0888596 
       11.51  -0.88896092    1.8885445    3.1479436 
       11.52   -0.8518032    1.9144468    3.2141698 
       11.53  -0.81366513    1.9189782    3.3596905 
       11.54  -0.77383114    1.9159164    3.5186379 
       11.55  -0.73390555    1.9903739    3.3660733 
       11.56  -0.69242514    2.1005123    3.0619962 
       11.57  -0.65460228    2.1642885     2.916761 
       11.58   -0.6205617    2.1884341    2.9139907 
       11.59  -0.59449216    2.2069768    2.9202992 
        11.6  -0.57456198     2.240106    2.8629375 
       11.61   -0.5626766    2.2704022    2.8093676 
       11.62  -0.56036668    2.2646869    2.8875198 
       11.63  -0.56549978    2.2279993    3.0842868 
       11.64  -0.57768237    2.1825483    3.3124549 
       11.65  -0.59699062    2.1273244     3.566586 
       11.66  -0.61932536    2.0534879    3.8737763 
       11.67  -0.64500114    1.9826147     4.137762 
       11.68  -0.66909634     1.942598    4.2455074 
       11.69  -0.69548518    1.9533579    4.1130799 
        11.7  -0.72280249    2.0122271     3.764861 
       11.71  -0.75352501    2.0896132    3.3349471 
       11.72  -0.78996284    2.1017412    3.1565671 
       11.73  -0.83031033    2.0255035    3.3244261 
       11.74  -0.86975674    1.9351574    3.5527221 
       11.75  -0.90547142    1.8881456    3.6093122 
       11.76   -0.9392618    1.8864072     3.477005 
       11.77  -0.97076983    1.9124257    3.2301829 
       11.78   -1.0003447    1.9299115     3.014923 
       11.79   -1.0285691      1.93401    2.8539049 
        11.8   -1.0558202    1.9460115     2.668004 
       11.81   -1.0786143    1.9602037    2.4853989 
       11.82   -1.1015728    1.9667351    2.3431926 
       11.83   -1.1224419    1.9666864    2.2503558 
       11.84   -1.1439727    1.9402475    2.2864276 
       11.85   -1.1621085    1.8664734    2.5383728 
       11.86   -1.1761174    1.7763517    2.8830219 
       11.87   -1.1828751    1.7264384    3.0967273 
       11.88   -1.1843872    1.7356733    3.0941091 
       11.89   -1.1793721    1.7852916    2.9499073 
        11.9   -1.1673047    1.8305837    2.8466593 
       11.91   -1.1480784    1.8268069    2.9641342 
       11.92   -1.1213996    1.7826427    3.2672471 
       11.93   -1.0842037    1.7609318    3.5071731 
       11.94   -1.0323781    1.8147234    3.4756267 
       11.95  -0.96404352    1.9292235    3.2330336 
       11.96  -0.87986604      2.04391    3.0171664 
       11.97  -0.78728519    2.1385748    2.8988393 
       11.98   -0.6935903    2.2203334    2.8365193 
       11.99   -0.6103913    2.2881763    2.8096332 
          12  -0.54230056    2.3431144    2.8027336 
       12.01  -0.49372449    2.3819737    2.8224579 
       12.02  -0.46512466    2.3931028     2.917935 
       12.03  -0.45159603    2.3558566    3.1787326 
       12.04  -0.45303257    2.2679634    3.6108827 
       12.05  -0.46235743     2.147165    4.1412741 
       12.06   -0.4756945    2.0437577    4.5612566 
       12.07  -0.49023888     2.040039    4.5521541 
       12.08  -0.50765372    2.1000363    4.2563326 
       12.09  -0.52808777    2.1539619    3.9646966 
        12.1  -0.55216325    2.1511817    3.8889335 
       12.11  -0.58168868    2.0757326    4.0845039 
       12.12  -0.61117358    1.9906529       4.3021 
       12.13   -0.6432148    1.9660432    4.2562762 
       12.14  -0.67460059    2.0060491    3.9360882 
       12.15  -0.70575023    2.0467684    3.5960274 
       12.16  -0.73636572    2.0520171    3.3884352 
       12.17  -0.76839762    2.0473716    3.2261301 
       12.18  -0.80021492    2.0467831    3.0648143 
       12.19  -0.83289764    2.0299595     2.981271 
        12.2  -0.86497445    1.9705355    3.0712926 
       12.21   -0.8978494     1.887832    3.2510557 
       12.22  -0.92728622    1.8141034    3.3924298 
       12.23  -0.95194141      1.77392    3.3967201 
       12.24  -0.96977897    1.7723355    3.2492165 
       12.25  -0.98192956    1.7984756    2.9993593 
       12.26  -0.98787186    1.8331579    2.7332856 
       12.27  -0.98674142    1.8518251    2.5537565 
       12.28  -0.97864921     1.843607    2.5050366 
       12.29  -0.96282706     1.822841    2.5335693 
        12.3  -0.94083278    1.8240253     2.509557 
       12.31  -0.91150001     1.863413    2.3784596 
       12.32  -0.87102067    1.9255499    2.2093529 
       12.33  -0.82061465    1.9834842    2.1060328 
       12.34  -0.76233181    2.0121816    2.1558058 
       12.35  -0.69875686    2.0130096    2.3422646 
       12.36  -0.63347901    2.0055768    2.5770271 
       12.37  -0.56932738    2.0059411    2.7825997 
       12.38  -0.51080398    2.0228087    2.9074948 
       12.39  -0.45966156    2.0571817    2.9372648 
        12.4  -0.41678673    2.0990214    2.9053685 
       12.41  -0.38440649    2.1357635    2.8586706 
       12.42  -0.36309402    2.1506149    2.8611654 
       12.43  -0.35089671    2.1336955    2.9510829 
       12.44  -0.34801034     2.106958    3.0472822 
       12.45  -0.35017308       2.1017     3.039512 
       12.46  -0.35451308     2.121929    2.9145399 
       12.47  -0.36529622    2.1510364    2.7307639 
       12.48  -0.37862969    2.1596793    2.6066055 
       12.49  -0.39348124    2.1326927    2.6061275 
        12.5   -0.4124625    2.0778607    2.7011368 
       12.51  -0.43027047    2.0417171    2.7350822 
       12.52  -0.44874172    2.0646169    2.5682769 
       12.53  -0.46759734    2.0969145    2.3790969 
       12.54  -0.48768419    2.0729403    2.3976199 
       12.55  -0.51028626     2.010423    2.5551341 
       12.56  -0.53178534    2.0115914    2.4969879 
       12.57  -0.55211632    2.0493554    2.3111227 
       12.58   -0.5733179    2.0638139    2.2059737 
       12.59  -0.59688407     2.051837    2.1964791 
        12.6  -0.62150016    2.0281162    2.2351118 
       12.61  -0.64496117    1.9957416    2.3121272 
       12.62  -0.66908107    1.9531328    2.4269156 
       12.63  -0.69024779    1.9154321    2.5269544 
       12.64  -0.70857626    1.9041931    2.5350072 
       12.65  -0.72369956    1.9053139    2.5010559 
       12.66  -0.73550591    1.8983683    2.4997475 
       12.67  -0.74672099    1.8825428    2.5323793 
       12.68  -0.75152955    1.8773129      2.53733 
       12.69  -0.75522562    1.9028845    2.4362554 
        12.7  -0.75641347    1.9488823      2.26783 
       12.71  -0.75669303    1.9976101    2.0963909 
       12.72  -0.75666212    2.0378867     1.966934 
       12.73  -0.75941816    2.0529659    1.9401497 
       12.74  -0.76379945     2.030937    2.0619477 
       12.75  -0.76977057    1.9839667    2.2875393 
       12.76  -0.77530159    1.9380325     2.522941 
       12.77  -0.78055487    1.8980332    2.7461845 
       12.78  -0.78273927    1.8577711    2.9794448 
       12.79  -0.78201357    1.8174562    3.2158961 
        12.8  -0.77742232    1.7974397    3.3767118 
       12.81  -0.76960629    1.8073124    3.4205909 
       12.82  -0.75816808    1.8324002    3.3977817 
       12.83  -0.74118561    1.8638827    3.3444461 
       12.84  -0.71971724    1.8824422    3.3296885 
       12.85  -0.69431897    1.9081712    3.2815746 
       12.86    -0.665383    2.0036962    2.9827368 
       12.87  -0.63409605    2.1001041    2.6853721 
       12.88  -0.60214302     2.184548    2.4480496 
       12.89  -0.57126807    2.2460966    2.3193336 
        12.9  -0.54614715    2.2514848    2.4197286 
       12.91  -0.52784342     2.212594    2.7058613 
       12.92  -0.51426954    2.1358267    3.1466267 
       12.93  -0.50351285    2.0374417     3.664587 
       12.94  -0.49326659    1.9742791    4.0318374 
       12.95  -0.48308869    1.9645203    4.1619345 
       12.96  -0.47226956    2.0279348    3.9824444 
       12.97   -0.4656262    2.0942663    3.7590513 
       12.98  -0.46373316    2.1256517    3.6514115 
       12.99  -0.46884394    2.1382918    3.6076225 
          13  -0.48049792    2.1283009    3.6402626 
       13.01  -0.49634281    2.1077402    3.6999742 
       13.02  -0.51754647    2.0957318    3.7059668 
       13.03  -0.54460234    2.0757091    3.7122068 
       13.04  -0.57712081     2.065692    3.6515369 
       13.05  -0.61574294    2.0757212    3.4904098 
       13.06  -0.65782208    2.0520649    3.4372637 
       13.07  -0.70242752    2.0156901    3.4194286 
       13.08   -0.7500887     2.021145    3.2321642 
       13.09  -0.79829688    2.0494191    2.9513009 
        13.1  -0.84976842    2.0586795    2.7372826 
       13.11  -0.90078401    2.0479591    2.6074568 
       13.12  -0.95086769    2.0255897    2.5353866 
       13.13  -0.99878562    1.9939669    2.5152772 
       13.14   -1.0401013    1.9560002    2.5418961 
       13.15    -1.076779    1.9245685    2.5624555 
       13.16   -1.1078466     1.917575    2.5118794 
       13.17   -1.1356211    1.9108706    2.4815048 
       13.18   -1.1561645    1.8680221    2.6166873 
       13.19   -1.1693647    1.7972615     2.882661 
        13.2    -1.175368     1.743679    3.0985019 
       13.21   -1.1744665     1.740889    3.1270741 
       13.22   -1.1678964    1.7823786    2.9867747 
       13.23   -1.1557016    1.8508291    2.7480538 
       13.24   -1.1404347    1.9154845    2.5333075 
       13.25   -1.1222738    1.9609173    2.4110692 
       13.26   -1.1021905    1.9973524    2.3490178 
       13.27   -1.0813393    2.0175505    2.3758459 
       13.28    -1.060979    2.0128344     2.522129 
       13.29   -1.0415755    1.9869578     2.768486 
        13.3   -1.0212273    1.9480234    3.0786047 
       13.31   -1.0000619     1.908832    3.3940278 
       13.32   -0.9763834    1.8789922    3.6689013 
       13.33  -0.94841865    1.8636273     3.871446 
       13.34  -0.91694574    1.8906472    3.8847811 
       13.35  -0.88200002    1.9422508    3.7780385 
       13.36  -0.84354884    1.9910039    3.6678973 
       13.37  -0.80487673    2.0512279    3.5115802 
       13.38  -0.76448245    2.1094563    3.3734126 
       13.39  -0.72682588    2.1595119    3.2785731 
        13.4  -0.69319802    2.1872248    3.2811105 
       13.41  -0.66301169     2.169345    3.4633678 
       13.42  -0.63528452    2.1412722    3.6827732 
       13.43  -0.61323514    2.1216295    3.8549061 
       13.44   -0.5943862     2.109396    3.9809953 
       13.45  -0.57535839    2.1063609    4.0532142 
       13.46  -0.55718888    2.1274318    4.0107094 
       13.47  -0.53812236    2.1610825    3.9020996 
       13.48  -0.51938659    2.1834584    3.8206646 
       13.49   -0.5001449    2.2269361    3.6544197 
        13.5  -0.48057282    2.2750388    3.4743565 
       13.51  -0.46291717     2.310984    3.3485553 
       13.52   -0.4500641    2.3182267    3.3345405 
       13.53  -0.44317926    2.2908731    3.4431882 
       13.54  -0.44668025    2.2587164    3.5453488 
       13.55  -0.45799908     2.240108    3.5696923 
       13.56  -0.48139402    2.2235295    3.5525664 
       13.57    -0.513115    2.2254017    3.4433318 
       13.58  -0.55347505    2.2133717     3.366559 
       13.59  -0.60185307    2.1412434    3.4898286 
        13.6  -0.65928243    2.0481423    3.6530085 
       13.61  -0.71852865    1.9835069    3.6687391 
       13.62  -0.77503641    1.9609492    3.4938985 
       13.63  -0.83336587    1.9711297    3.1747754 
       13.64  -0.88923858    1.9774114     2.873797 
       13.65  -0.94112829    1.9632291    2.6709264 
       13.66  -0.98858615     1.932705    2.5600857 
       13.67   -1.0315567    1.8951883    2.5078117 
       13.68    -1.069244    1.8576126    2.4853694 
       13.69   -1.1030101    1.8315821    2.4437824 
        13.7   -1.1307458    1.8175915    2.3813528 
       13.71    -1.152089    1.8061091     2.332596 
       13.72   -1.1689847    1.7994852    2.2867791 
       13.73   -1.1798322    1.7960375    2.2524251 
       13.74   -1.1843128    1.7875783    2.2598572 
       13.75   -1.1824047    1.7725609    2.3150947 
       13.76   -1.1744964    1.7493756    2.4205477 
       13.77   -1.1577556    1.7483236    2.4688204 
       13.78   -1.1327609    1.7787251    2.4272988 
       13.79   -1.1020653    1.7932287    2.4646655 
        13.8    -1.064223    1.7894719    2.5914872 
       13.81   -1.0180214    1.7948596    2.7050975 
       13.82  -0.96556757    1.8270959    2.7322931 
       13.83   -0.9100841    1.8726348    2.7126315 
       13.84  -0.85345069    1.9136414    2.7044983 
       13.85  -0.79770636     1.949371    2.7044802 
       13.86  -0.74521027    1.9939326     2.657228 
       13.87   -0.6966811    2.0554452     2.536633 
       13.88  -0.65382776    2.1060692    2.4470303 
       13.89  -0.61848265    2.1174105     2.492675 
        13.9  -0.59211253     2.101096    2.6295083 
       13.91  -0.57224049    2.0848951    2.7541732 
       13.92  -0.55472895    2.0932433    2.7768989 
       13.93  -0.54214158    2.1374354    2.6537196 
       13.94  -0.53550636    2.1939983    2.4775821 
       13.95  -0.53362824     2.219723    2.4208537 
       13.96  -0.53751861    2.1842688    2.6029398 
       13.97  -0.54693175    2.0756936    3.0649136 
       13.98  -0.55541168    1.9159414    3.7155679 
       13.99  -0.56118723    1.7835239    4.2389914 
          14   -0.5638754    1.7904336     4.204218 
       14.01  -0.56275245    1.9193023     3.678267 
       14.02  -0.55858017    2.0356145    3.1763124 
       14.03  -0.55594088    2.1039625    2.8550924 
       14.04  -0.55709718    2.1479821    2.6463819 
       14.05  -0.56123566    2.1518657    2.6158261 
       14.06    -0.571944    2.0871696    2.8592755 
       14.07  -0.58361066    1.9792831    3.2777269 
       14.08   -0.5959505    1.9078705    3.5600036 
       14.09  -0.60597476    1.9176726    3.5333264 
        14.1  -0.61572344    1.9297888    3.4797213 
       14.11  -0.62516569    1.9093928    3.5323774 
       14.12  -0.63366347    1.9002435     3.535038 
       14.13  -0.63999672    1.9316619    3.3818201 
       14.14  -0.64494819     1.978744     3.164569 
       14.15  -0.65043821    2.0138775    2.9879311 
       14.16  -0.65547422    2.0251408      2.90215 
       14.17  -0.66311156    2.0125991    2.9054506 
       14.18  -0.67183802    1.9871198     2.959763 
       14.19  -0.68113514    1.9720259    2.9826754 
        14.2  -0.68989573    1.9578092    3.0102258 
       14.21  -0.69952823    1.9355023    3.0726993 
       14.22  -0.70862783    1.9016816    3.1805027 
       14.23  -0.71563835    1.8696154    3.2814712 
[...]
   27270  -0.68821537    1.9118431    3.3169329   0.64992813 
   27280  -0.66150252    1.8894724    3.4755218    0.6501005 
   27290  -0.63452242     1.923705    3.4203038   0.65020159 
   27300   -0.6065709    1.9845814    3.2630614   0.65023904 
   27310  -0.57859366    2.0064655    3.2418094   0.65023367 
   27320  -0.55408312    2.0112787    3.2726398   0.65019041 
   27330  -0.52916859    2.0562696    3.1495473   0.65010793 
   27340  -0.50419001    2.1346183    2.8949527   0.65000456 
   27350  -0.48481765    2.2000349    2.6752447   0.64991596 
   27360  -0.47295704    2.2179235    2.6208577   0.64987273 
   27370  -0.46534804    2.1890489    2.7348473   0.64988222 
   27380  -0.46486357    2.1540594    2.8644519   0.64992907 
   27390  -0.46932337    2.1435733    2.8992725   0.64999514 
   27400  -0.48023995    2.1471472    2.8754631   0.65007468 
   27410  -0.49652344    2.1241176    2.9420965   0.65016901 
   27420  -0.51464219    2.0620601    3.1473655   0.65026757 
   27430  -0.53576339    1.9846877     3.395896   0.65034118 
   27440  -0.55661426    1.9381174    3.5136592   0.65035554 
   27450  -0.57793932    1.9553215    3.3728908   0.65029548 
   27460  -0.59886485    2.0148966    3.0534535   0.65018152 
   27470  -0.62490357    2.0667963    2.7382352   0.65005906 
   27480  -0.65575818      2.09673    2.4915448   0.64997413 
   27490  -0.69061721    2.0950805    2.3546768   0.64996222 
   27500  -0.72934853    2.0695963    2.3027529   0.65004334 
   27510  -0.77335532    2.0385248    2.2713853   0.65022544 
   27520  -0.82192609    2.0022423    2.2629853   0.65051242 
   27530  -0.87273416     1.954069    2.3062597    0.6509045 
   27540  -0.92145106    1.9028804    2.3738874   0.65139512 
   27550  -0.96808779    1.8572537    2.4313472   0.65197433 
   27560   -1.0098645    1.8137827    2.4900381   0.65263303 
   27570   -1.0462481    1.7930499    2.4761461   0.65336329 
   27580   -1.0765963     1.805895    2.3541962   0.65416756 
   27590   -1.1007024    1.8188961    2.2474735   0.65506191 
   27600   -1.1188343    1.8358831    2.1465508   0.65606226 
   27610   -1.1324954    1.8565753    2.0549327    0.6571834 
   27620   -1.1410114    1.8534248    2.0785189   0.65843723 
   27630   -1.1434677    1.8162423    2.2572678   0.65981947 
   27640    -1.140379    1.7801716     2.457082   0.66130509 
   27650   -1.1316979    1.7868978    2.5192951   0.66286644 
   27660   -1.1167497    1.8044756    2.5574871   0.66449239 
   27670   -1.0956463    1.8033759    2.6810605   0.66617551 
   27680   -1.0676642     1.814381    2.7802943   0.66789883 
   27690    -1.030518    1.8502855    2.8143399    0.6696479 
   27700  -0.98620022    1.8751696    2.9188701   0.67141548 
   27710  -0.93514618    1.8848454    3.1134913   0.67318555 
   27720  -0.87045537     1.916141    3.2708498   0.67493072 
   27730   -0.7970221    1.9769021    3.3545334   0.67662804 
   27740  -0.71196449    2.0300776    3.5074276   0.67826298 
   27750  -0.61897866    2.0578543    3.7885479   0.67981193 
   27760  -0.52215018    2.0873046    4.0809611   0.68123488 
   27770  -0.42444297    2.1220854    4.3494907   0.68248919 
   27780  -0.33897363    2.1298719    4.6770017    0.6835344 
   27790  -0.26749644    2.1033963    5.0678921   0.68432255 
   27800  -0.21382224    2.0668462    5.4057517   0.68479831 
   27810  -0.17783938    2.0703843    5.4875993   0.68491568 
   27820   -0.1527298    2.1713739     5.110109   0.68466758 
   27830  -0.14334277    2.3051995    4.5289601   0.68410895 
   27840  -0.14652018    2.3930121    4.0730847    0.6833239 
   27850  -0.16310037    2.4328423    3.7705387   0.68238164 
   27860  -0.19276665    2.4253265    3.6271006   0.68132803 
   27870  -0.23350104    2.3716669    3.6387111   0.68018519 
   27880  -0.28234504    2.3151918    3.6409008   0.67895435 
   27890   -0.3341861    2.3018135    3.4656744   0.67763828 
   27900  -0.39433253    2.3080006    3.1959227   0.67626257 
   27910  -0.45754982    2.3047197     2.958373    0.6748662 
   27920    -0.525249    2.2660574    2.8585328   0.67348324 
   27930   -0.5947214    2.1780586    2.9548906   0.67212766 
   27940  -0.66152225    2.0665834    3.1512617   0.67078621 
   27950  -0.72188215    1.9809497    3.2612899   0.66943215 
   27960   -0.7782036    1.9420325    3.2002093   0.66805051 
   27970  -0.82723457    1.9329681    3.0358841   0.66664981 
   27980  -0.87023777     1.918668    2.8982913   0.66525289 
   27990  -0.90709068    1.8989278    2.7896328   0.66388013 
   28000  -0.93821538    1.9075275     2.588251   0.66254915 
   28010  -0.96606218    1.9482962    2.2854567   0.66128962 
   28020  -0.98988989    1.9753544    2.0622537   0.66014326 
   28030   -1.0118012    1.9514923    2.0602804   0.65914023 
   28040   -1.0308734    1.8762567    2.2784513   0.65827949 
   28050   -1.0458995    1.7903508    2.5549846   0.65752947 
   28060   -1.0569627    1.7551146    2.6530611   0.65685159 
   28070    -1.059945    1.7639251    2.5944992   0.65623016 
   28080   -1.0572873    1.7844928    2.4932895   0.65567197 
   28090   -1.0459526    1.8062019    2.3918716   0.65519089 
   28100   -1.0284027    1.8589013    2.1822044   0.65480281 
   28110   -1.0043916    1.9522386    1.8435234   0.65453877 
   28120  -0.97658027    2.0217614    1.6216636   0.65444473 
   28130  -0.94711912    2.0456196    1.6065958    0.6545517 
   28140  -0.91513721    2.0316292    1.7729215   0.65486131 
   28150  -0.88590984    1.9845361    2.0862628   0.65534852 
   28160  -0.85267891    1.9225579    2.4717723   0.65596706 
   28170  -0.81717465     1.903807    2.7018104   0.65666242 
   28180  -0.77910749    1.9536752    2.6808192   0.65740171 
   28190  -0.73722552    2.0069625    2.6503843   0.65818459 
   28200  -0.69164409    2.0360399    2.7176971   0.65901411 
   28210  -0.64516883    2.0799378    2.7452786   0.65988239 
   28220  -0.60143345     2.122777    2.7910322   0.66078438 
   28230  -0.55991796    2.1106785    3.0512802   0.66171052 
   28240  -0.52057251    2.0548359    3.4734392   0.66262274 
   28250  -0.48380332    2.0443528    3.7124129   0.66346286 
   28260  -0.45084378    2.1176901    3.6147429   0.66419776 
   28270  -0.41992595    2.1862022    3.5100091   0.66483746 
   28280  -0.39473185    2.1959638    3.6021134   0.66539533 
   28290  -0.37500154    2.1545251    3.8644687   0.66585819 
   28300  -0.36435219    2.1158481    4.0859244   0.66619001 
   28310  -0.35477176    2.1385645     4.056633   0.66636116 
   28320  -0.35131759    2.1842259    3.9082482   0.66637454 
   28330  -0.35551473    2.2184933    3.7635724   0.66625105 
   28340  -0.37004343    2.2598216    3.5507612   0.66601375 
   28350  -0.39471709    2.2947914    3.3222057   0.66569396 
   28360  -0.43427553    2.2751163    3.2521358   0.66532353 
   28370  -0.48872435    2.2028975    3.3309366   0.66491316 
   28380  -0.55578024    2.1276411    3.3718988   0.66445385 
   28390  -0.63754369    2.0869448    3.2291892    0.6639416 
   28400  -0.72991706    2.0856034    2.9006223   0.66339787 
   28410  -0.82798105    2.0805451    2.5739198   0.66286898 
   28420  -0.92331708    2.0408732    2.4029257   0.66240145 
   28430   -1.0075989    1.9703533    2.4067912   0.66202025 
   28440    -1.073513    1.8928952    2.5146466   0.66172546 
   28450   -1.1214277    1.8228866    2.6674463   0.66150162 
   28460   -1.1527438    1.7579226    2.8587881   0.66132588 
   28470   -1.1704519     1.695829    3.0761698   0.66116978 
   28480   -1.1781698    1.6496445     3.249839   0.66100185 
   28490   -1.1766737    1.6458796    3.2688977   0.66079775 
   28500   -1.1663982     1.694212    3.0942005   0.66055521 
   28510   -1.1508582    1.7668501    2.8300508   0.66029897 
   28520   -1.1298413    1.8247708    2.6310486   0.66006625 
   28530   -1.1059041    1.8560973    2.5461735   0.65988597 
   28540   -1.0799687    1.8713578    2.5388712   0.65977108 
   28550   -1.0491723    1.8848477    2.5608346   0.65972308 
   28560   -1.0171546    1.8994911    2.5968674   0.65973892 
   28570  -0.98180795    1.9005976    2.7021554   0.65981236 
   28580  -0.94663119    1.8795919     2.897612   0.65992737 
   28590  -0.90789351     1.864845    3.0747107   0.66005621 
   28600  -0.86826143    1.8987267    3.0681798   0.66017483 
   28610  -0.82574212    1.9712476    2.9173035   0.66028361 
   28620  -0.78183934    2.0314332    2.8117123   0.66040244 
   28630  -0.74056222    2.0598105    2.8232525   0.66054621 
   28640  -0.70367988     2.068992    2.9041109    0.6607138 
   28650  -0.67118363    2.0779292    2.9808349   0.66089413 
   28660  -0.64167951    2.0916677    3.0314102   0.66107602 
   28670  -0.61547264    2.1062141    3.0672292   0.66125184 
   28680  -0.59357423    2.1077237    3.1359325   0.66141558 
   28690  -0.57374605    2.0936182    3.2481099    0.6615569 
   28700  -0.55909005    2.0833778    3.3253603   0.66166023 
   28710   -0.5459653    2.0907918    3.3161106   0.66171455 
   28720  -0.53900249    2.1466765    3.1016275    0.6617231 
   28730  -0.53375807    2.2123344    2.8324855    0.6617154 
   28740  -0.53829322    2.2376601    2.6877483   0.66172935 
   28750  -0.54909725    2.2235548    2.6728164    0.6617864 
   28760  -0.56695979    2.1959849    2.6892267   0.66189008 
   28770  -0.59371383     2.190891     2.601685   0.66203989 
   28780  -0.62645948    2.2070011     2.423425   0.66224879 
   28790  -0.66857395    2.1940822    2.3417599   0.66254091 
   28800  -0.71550575    2.1423878    2.4057366   0.66292778 
   28810  -0.77076362    2.1033249    2.4268977   0.66340312 
   28820  -0.82664853     2.060396    2.4706408   0.66396291 
   28830  -0.88287384     1.995616    2.5997588   0.66460018 
   28840  -0.93552621    1.9328195    2.7282388   0.66529718 
   28850  -0.98117006    1.8926784    2.7781176   0.66603605 
   28860   -1.0182676    1.8831818    2.7195331   0.66680998 
   28870   -1.0490585    1.8918433     2.599459   0.66762732 
   28880   -1.0732791    1.8924511    2.5224609   0.66850481 
   28890    -1.090368    1.8690085    2.5538314   0.66945336 
   28900   -1.0984933    1.8336258    2.6507676   0.67046923 
   28910   -1.1018777    1.8202733    2.6764439   0.67154013 
   28920   -1.1003223    1.8545429     2.532479    0.6726638 
   28930   -1.0940918    1.9233852    2.2703102   0.67386125 
   28940   -1.0864964    1.9824438    2.0609066   0.67516968 
   28950   -1.0782911     2.000937    2.0279947   0.67661924 
   28960   -1.0704982    1.9921121    2.1231034   0.67821614 
   28970   -1.0579635    1.9916048    2.2139239    0.6799487 
   28980   -1.0464196    2.0048759    2.2634055   0.68180445 
   28990   -1.0361218     2.010722    2.3457333    0.6837753 
   29000   -1.0254344    2.0112749     2.455643   0.68584944 
   29010   -1.0125136     2.002753    2.6097657   0.68801021 
   29020  -0.99997638     1.992805    2.7757236   0.69023496 
   29030  -0.98734404    2.0048754    2.8661084   0.69249991 
   29040  -0.97240992     2.013377    2.9782608   0.69478939 
   29050  -0.95770481    2.0187696    3.1045694   0.69708615 
   29060  -0.94538526    2.0453171    3.1465809   0.69937192 
   29070  -0.93345773    2.0798813    3.1584042    0.7016388 
   29080  -0.92422205    2.0760559    3.3212183   0.70388162 
   29090   -0.9146486    2.0195192    3.6950457   0.70607438 
   29100  -0.90595589    1.9635156    4.0603348   0.70816346 
   29110  -0.89626282    1.9637371    4.1871023   0.71009652 
   29120  -0.88701666    2.0238023    4.0513826   0.71185405 
   29130  -0.87973674    2.1096814     3.790878   0.71345375 
   29140  -0.87881478    2.1767801    3.5913621   0.71493162 
   29150  -0.88388744    2.1881563    3.6164504   0.71631484 
   29160  -0.89665221    2.1279468    3.9341297   0.71759878 
   29170   -0.9129891    2.0136608    4.4699733   0.71873696 
   29180  -0.92984931    1.9193979    4.9091608   0.71965381 
   29190  -0.94996264    1.8922919     5.031557   0.72028727 
   29200  -0.97256283    1.9060356    4.9255978   0.72061823 
   29210  -0.99718246    1.9431015    4.6641437   0.72066242 
   29220   -1.0257641    1.9811503    4.3442417   0.72045837 
   29230   -1.0621969    2.0020009    4.0459109   0.72005338 
   29240   -1.1029005    2.0164942    3.7432982   0.71949285 
   29250   -1.1539834    2.0357474    3.3927645    0.7188231 
   29260   -1.2177465    2.0426135    3.0659819   0.71809571 
   29270   -1.2937188    2.0110054    2.8728183   0.71735795 
   29280   -1.3794404    1.9455524    2.8044541   0.71663864 
   29290   -1.4686952    1.8793272    2.7464417   0.71594938 
   29300   -1.5518627    1.8287668    2.6554578   0.71529933 
   29310   -1.6262905    1.7765812    2.6078512   0.71470069 
   29320   -1.6848295    1.7325247    2.5755632   0.71416056 
   29330   -1.7295472    1.7272973    2.4328194   0.71368537 
   29340   -1.7607143    1.7466348    2.2377867   0.71329532 
   29350   -1.7812093    1.7424854    2.1823691   0.71301643 
   29360   -1.7911236    1.7101421    2.2894885   0.71285622 
   29370   -1.7926179    1.6767077    2.4449174   0.71280009 
   29380   -1.7864277     1.643901    2.6277612   0.71282483 
   29390    -1.771923    1.6146927    2.8147447   0.71290332 
   29400   -1.7502673    1.6100391    2.9128474    0.7130089 
   29410   -1.7222993    1.6482653    2.8468108   0.71312808 
   29420   -1.6868768    1.6993622    2.7396884   0.71326896 
   29430   -1.6473415    1.7313671    2.7164189    0.7134456 
   29440   -1.6032796    1.7634268    2.7068828   0.71366255 
   29450   -1.5566217    1.7932177      2.71977   0.71392097 
   29460   -1.5084271    1.8116558    2.7922124   0.71421841 
   29470   -1.4619128    1.8235589    2.9030743   0.71454449 
   29480   -1.4167387    1.8226139     3.077197   0.71488243 
   29490   -1.3722992    1.7927874    3.3714403   0.71520553 
   29500   -1.3303476    1.7486959    3.7094411   0.71547088 
   29510   -1.2888587     1.750735    3.8390001   0.71563159 
   29520   -1.2468869      1.84058    3.5950199   0.71567071 
   29530    -1.202728    1.9812184    3.1450701   0.71562241 
   29540   -1.1595957    2.0784377    2.8822763   0.71554848 
   29550    -1.124991    2.0743733     3.038372   0.71548509 
   29560   -1.0963835    1.9870541    3.5364786   0.71540993 
   29570   -1.0710275    1.8982163    4.0316614   0.71525338 
   29580   -1.0470017    1.8904116    4.1792829   0.71494655 
   29590   -1.0240947    1.9233267    4.1309307   0.71446565 
   29600   -1.0022954    1.9120944    4.2163154   0.71381329 
   29610  -0.97885302    1.9236672    4.1763404   0.71298085 
   29620  -0.95495616    2.0101787    3.8147331   0.71197758 
   29630  -0.93091901     2.106696    3.4091159   0.71085373 
   29640  -0.91015041    2.1559204    3.2058802     0.709667 
   29650  -0.89546588    2.1261054    3.3327685   0.70844607 
   29660  -0.88729865    2.0499507    3.6469942   0.70717399 
   29670  -0.88109399    2.0081756    3.8162236   0.70580877 
   29680   -0.8787062    2.0356892    3.6856532   0.70432784 
   29690  -0.87487527     2.086157    3.4439811   0.70274851 
   29700    -0.874893    2.1152169    3.2694697   0.70110526 
   29710   -0.8756397    2.0950776    3.2799412   0.69942285 
   29720   -0.8813697    2.0721286      3.29125   0.69770266 
   29730  -0.88828849    2.1037688    3.0955007   0.69594661 
   29740  -0.89966027     2.115618    2.9783051   0.69418017 
   29750   -0.9129615    2.0678032    3.0945506   0.69241912 
   29760  -0.93013637    2.0138333    3.2268092    0.6906496 
   29770  -0.95094483    2.0034453    3.1744383   0.68885496 
   29780   -0.9693559    2.0341679    2.9572053   0.68704317 
   29790  -0.99090548    2.0558606    2.7720772   0.68524454 
   29800   -1.0130486    2.0216709    2.8136073   0.68348418 
   29810   -1.0378941    1.9380597    3.0551534    0.6817564 
   29820   -1.0621071    1.8638984    3.2681374   0.68002852 
   29830   -1.0859896    1.8474292     3.258522   0.67827199 
   29840   -1.1062196    1.8707811    3.0918947    0.6764879 
   29850   -1.1264059    1.8995343    2.8970932   0.67470012 
   29860   -1.1412355    1.8963498    2.8275424   0.67293587 
   29870   -1.1538699     1.847461    2.9297553   0.67120507 
   29880   -1.1645319     1.777448     3.102552   0.66949406 
   29890   -1.1687479    1.7276644    3.1877507    0.6677794 
   29900   -1.1645666    1.7403079    3.0347761   0.66605098 
   29910   -1.1496626    1.8138547    2.6718951   0.66433168 
   29920   -1.1211293    1.9021804    2.2965607   0.66267294 
   29930   -1.0843688     1.967709    2.0563965   0.66112821 
   29940   -1.0392851     1.998573     2.000198   0.65973156 
   29950  -0.98881633    1.9916387    2.1305472   0.65849001 
   29960  -0.93791504    1.9513982    2.4110055   0.65738325 
   29970  -0.88728299    1.9139636    2.6933524   0.65637049 
   29980  -0.83498843    1.9175647    2.8291908   0.65541117 
   29990  -0.78311373    1.9590026    2.8228972   0.65448472 
   30000  -0.73222578    2.0039995    2.8001304   0.65359021 
Loop time of 4.99 on 8 procs for 30000 steps with 125 atoms

Performance: 519439.175 tau/day, 6012.027 timesteps/s
95.5% CPU use with 1 MPI tasks x 8 OpenMP threads

MPI task timing breakdown:
Section |  min time  |  avg time  |  max time  |%varavg| %total
---------------------------------------------------------------
Pair    | 1.7641     | 1.7641     | 1.7641     |   0.0 | 35.35
Neigh   | 0.011922   | 0.011922   | 0.011922   |   0.0 |  0.24
Comm    | 0.11679    | 0.11679    | 0.11679    |   0.0 |  2.34
Output  | 0.061091   | 0.061091   | 0.061091   |   0.0 |  1.22
Modify  | 3.0272     | 3.0272     | 3.0272     |   0.0 | 60.67
Other   |            | 0.008852   |            |       |  0.18

Nlocal:        125.000 ave         125 max         125 min
Histogram: 1 0 0 0 0 0 0 0 0 0
Nghost:        2053.00 ave        2053 max        2053 min
Histogram: 1 0 0 0 0 0 0 0 0 0
Neighs:        16355.0 ave       16355 max       16355 min
Histogram: 1 0 0 0 0 0 0 0 0 0

Total # of neighbors = 16355
Ave neighs/atom = 130.84000
Neighbor list builds = 121
Dangerous builds = 0

variable avedens equal f_aves[1]
variable avetemp equal f_aves[2]
variable avepress equal f_aves[3]
variable errdens equal sqrt(f_aves[4]-f_aves[1]*f_aves[1])
variable errtemp equal sqrt(f_aves[5]-f_aves[2]*f_aves[2])
variable errpress equal sqrt(f_aves[6]-f_aves[3]*f_aves[3])

print "Averages"
Averages
print "--------"
--------
print "Density: ${avedens}"
Density: 0.668674260056062
print "Stderr: ${errdens}"
Stderr: 0.0213151591410946
print "Temperature: ${avetemp}"
Temperature: 2.004072814866
print "Stderr: ${errtemp}"
Stderr: 0.150860267541479
print "Pressure: ${avepress}"
Pressure: 3.00579495121429
print "Stderr: ${errpress}"
Stderr: 0.610317469396412
clear # Clear any previous runs
  using 8 OpenMP thread(s) per MPI task

package omp 8 # For parallelisation.
using multi-threaded neighbor list subroutines


### DEFINE SIMULATION BOX GEOMETRY ###
lattice sc 0.8
Lattice spacing in x,y,z = 1.0772173 1.0772173 1.0772173
region box block 0 5 0 5 0 5
create_box 1 box
Created orthogonal box = (0.0000000 0.0000000 0.0000000) to (5.3860867 5.3860867 5.3860867)
  1 by 1 by 1 MPI processor grid
create_atoms 1 box
Created 125 atoms
  create_atoms CPU = 0.001 seconds

### DEFINE PHYSICAL PROPERTIES OF ATOMS ###
mass 1 1.0
pair_style lj/cut/omp 2.5
pair_coeff 1 1 1.0 1.0
neighbor 2.0 bin

### SPECIFY THE REQUIRED THERMODYNAMIC STATE ###
variable T equal 2.25
variable p equal 2
variable timestep equal 0.001

log ${T}_${p}_NpT.log # specify the log file name. Can overwrite if desired
log 2.25_${p}_NpT.log 
log 2.25_2_NpT.log 
