ITEM: TIMESTEP
0
ITEM: NUMBER OF ATOMS
125
ITEM: BOX BOUNDS pp pp pp
0.0000000000000000e+00 1.3572088082974531e+01
0.0000000000000000e+00 1.3572088082974531e+01
0.0000000000000000e+00 1.3572088082974531e+01
ITEM: ATOMS id x y z
29 5.70732 2.17002 1.25811
75 0.797648 2.37533 1.20444
14 6.91361 3.8398 0.455245
3 12.3763 2.81851 1.01429
10 4.44381 5.64374 1.62906
113 3.14443 6.07937 1.19063
8 7.71909 6.75136 0.34887
43 7.71298 4.64695 1.37388
26 8.50082 4.9503 0.565848
96 10.5935 5.72876 0.127563
2 13.3281 5.47413 1.49621
71 11.8321 4.69317 0.384192
55 3.25551 7.91268 1.39712
103 8.0411 7.89566 0.710375
122 13.4184 7.92189 1.98881
115 2.05026 10.4981 1.27223
116 2.33864 9.25631 1.59452
22 6.0697 10.3904 1.32946
78 11.4201 10.3746 0.55816
63 3.32539 13.0735 0.707527
79 6.19731 12.475 1.90246
48 9.18459 12.2163 1.15984
13 13.413 12.3421 0.827064
66 4.11265 1.473 2.48828
44 3.12925 0.209493 4.06048
5 5.61883 2.24557 2.76538
49 5.09918 0.073666 4.14824
118 4.83089 1.44898 3.88687
24 4.23697 2.34624 3.9427
100 8.86512 4.0363 4.38622
68 12.7535 2.66958 2.36749
102 1.52825 5.36649 4.20841
65 0.356943 5.20776 3.71369
107 9.70699 6.33309 3.71163
64 3.88707 8.46138 3.82337
52 4.5947 7.49327 2.42099
32 5.14035 7.62049 4.30234
92 8.79361 7.04139 2.90542
54 8.53957 8.88238 3.35545
19 7.936 8.32353 4.46909
121 10.0327 7.03479 2.94558
76 2.08651 10.5956 2.63589
111 1.21217 12.0984 3.99369
112 10.8418 13.3941 2.88323
57 3.84818 1.64097 5.23926
86 7.94748 1.06713 5.94207
4 10.2457 0.626307 5.75505
124 6.73753 2.81623 5.61958
31 1.84712 6.10747 4.88226
94 1.55998 4.96828 5.23559
15 4.57665 6.06468 4.81638
17 11.2958 5.20098 5.34833
28 13.4243 5.18929 4.71698
114 1.84149 7.65631 5.13217
16 2.87515 7.67265 5.03779
23 4.6677 8.0779 5.73232
38 5.96098 7.89253 4.91619
58 6.32985 6.98419 5.80003
30 7.44868 6.90781 5.21379
37 8.30513 7.14893 6.64226
109 8.98884 7.53977 5.20134
33 10.5811 8.26191 6.17263
50 12.1215 8.88498 6.07942
70 8.60643 9.60619 6.61223
67 10.2383 10.1616 6.57834
36 4.22687 11.5411 6.44992
34 6.17612 11.8235 5.0547
99 9.66492 11.5924 5.10567
56 1.04812 1.22917 7.09095
72 0.023188 0.16029 9.04406
9 10.2093 2.05574 7.79845
45 3.80925 3.72933 8.49697
74 11.1646 3.02397 7.72493
53 1.373 5.0217 8.112
117 2.20392 5.82398 8.07273
80 0.681117 6.01032 8.97967
20 6.23891 6.01033 7.75358
88 10.5181 6.26677 7.06088
98 9.51865 6.62879 8.51269
1 10.6979 7.70553 7.15468
119 11.1249 8.92698 6.85506
42 11.7589 7.64285 6.8447
93 0.0576526 10.4014 8.23342
95 0.64454 9.3375 7.72398
120 5.84276 10.0567 7.47494
73 10.2994 9.91338 7.57106
69 10.8848 9.78709 8.68013
21 12.1852 10.311 8.32074
6 13.2884 9.80366 8.8938
91 1.68367 12.127 8.84427
51 5.61602 13.156 8.05171
60 1.08171 0.32563 9.62049
90 12.9122 0.864343 9.68772
41 0.898439 2.48377 9.66853
35 2.64978 4.44608 10.4443
105 7.63124 2.7011 9.91884
40 7.76799 2.86182 11.2426
77 1.39324 5.30614 11.1554
84 2.3037 5.31075 9.95274
87 7.08802 5.33867 10.6474
97 9.39339 8.06226 11.0641
110 1.99648 10.8481 10.1932
47 3.76333 12.79 9.91018
106 5.18537 13.0247 10.6299
125 3.80879 3.05394 12.0029
108 4.5471 3.54577 12.5295
104 6.95419 2.55871 13.4371
59 7.33177 3.73957 11.9398
85 12.94 3.86568 12.8054
12 2.03898 6.60853 12.849
7 7.96717 4.55949 11.4953
81 8.23133 5.39276 12.4748
25 9.17065 4.76957 13.0395
62 9.37135 6.29719 13.1738
123 8.7591 7.14929 13.4472
18 8.496 8.01712 12.1769
11 7.82232 7.14104 11.8066
27 7.30499 8.82971 12.1733
61 10.8831 8.90493 13.5698
46 6.56404 9.84702 13.3146
83 1.36715 11.7587 12.4737
82 3.76419 13.3166 13.2173
39 3.17277 12.479 12.247
101 6.98762 13.095 12.0007
89 10.8749 13.3026 13.5258
ITEM: TIMESTEP
100
ITEM: NUMBER OF ATOMS
125
ITEM: BOX BOUNDS pp pp pp
0.0000000000000000e+00 1.3572088082974531e+01
0.0000000000000000e+00 1.3572088082974531e+01
0.0000000000000000e+00 1.3572088082974531e+01
ITEM: ATOMS id x y z
29 5.78709 2.23511 1.23322
75 0.736215 2.40589 1.28433
14 6.90179 3.83762 0.440285
3 12.3089 2.9083 1.11588
10 4.46311 5.49696 1.83561
113 2.97265 6.10095 1.39318
8 7.725 6.71383 0.284355
43 7.76077 4.5258 1.37531
26 8.41798 4.76816 0.466597
96 10.5467 5.7017 0.0312115
2 13.2397 5.52418 1.52266
71 11.7575 4.88538 0.566308
55 3.18491 7.84504 1.50643
103 8.22462 7.88629 0.677785
122 13.4118 7.71624 2.0075
115 2.0675 10.5611 1.20564
116 2.43442 9.42274 1.58482
22 6.06706 10.3373 1.14487
78 11.3793 10.2724 0.504483
63 3.40735 12.8204 0.626739
79 6.2968 12.5173 1.97114
48 9.26478 12.2278 0.995968
13 13.4106 12.244 0.785935
66 4.18781 1.34776 2.35749
44 3.2159 0.163122 3.95822
5 5.73469 2.35764 2.83909
49 5.10135 0.021039 4.26702
118 4.77312 1.48725 3.82701
24 4.3512 2.43886 3.76453
100 8.96965 4.0132 4.28348
68 12.6926 2.73816 2.26222
102 1.56265 5.31642 4.11489
65 0.3845 5.08164 3.61226
107 9.63054 6.32013 3.81535
64 4.04134 8.44918 3.78222
52 4.5956 7.64011 2.4218
32 5.04758 7.57197 4.262
92 8.73301 7.01428 3.11
54 8.5191 8.79575 3.67381
19 7.92437 8.31722 4.49344
121 9.99217 7.10027 3.03175
76 2.37308 10.715 2.58314
111 1.24679 12.1285 3.81407
112 10.7197 13.3678 2.88052
57 3.96888 1.54551 5.2418
86 7.82111 0.909815 6.01405
4 10.291 0.766367 5.8427
124 6.73971 2.77552 5.57974
31 1.84154 6.09646 4.85482
94 1.51756 4.89643 5.12103
15 4.46602 6.096 4.93944
17 11.213 5.32716 5.29666
28 13.4254 4.81869 4.60107
114 1.99921 7.71776 5.12523
16 3.06621 7.74197 5.17017
23 4.58436 8.08847 5.85027
38 6.15999 7.94672 5.01622
58 6.25312 6.9956 5.784
30 7.42727 7.01875 5.29274
37 8.4928 7.0665 6.62044
109 8.97594 7.48966 5.15088
33 10.7508 8.34119 6.18616
50 12.1079 8.95904 6.04465
70 8.50618 9.68665 6.46715
67 10.0808 10.3137 6.37373
36 4.05978 11.6778 6.36418
34 6.16221 11.9247 5.02761
99 9.80259 11.5965 5.15902
56 1.04954 1.18449 7.0637
72 -0.0633602 0.290778 9.12696
9 10.2424 2.05364 7.91829
45 3.67704 3.85328 8.43911
74 11.2572 3.17361 7.7147
53 1.43026 5.21131 8.39726
117 2.2299 5.9034 8.21782
80 0.782046 5.9081 8.82437
20 6.26399 6.09073 7.68821
88 10.4908 6.43426 7.13915
98 9.53964 6.58491 8.43349
1 10.5493 7.5383 7.15005
119 11.2532 8.88337 6.87299
42 11.8572 7.80574 7.00847
93 0.100582 10.5604 8.11537
95 0.73365 9.38682 7.64759
120 5.98736 10.1892 7.53925
73 10.1625 9.9259 7.47449
69 10.9103 9.7825 8.83419
21 12.2358 10.3191 8.27479
6 13.2044 9.75676 9.02141
91 1.68426 12.3964 8.83007
51 5.83531 13.1193 8.07169
60 1.07686 0.212034 9.50704
90 12.8876 0.746262 9.85584
41 0.737446 2.37551 9.65211
35 2.71266 4.26261 10.5433
105 7.63517 2.76957 9.79561
40 7.57882 2.91518 11.2043
77 1.37193 5.23813 11.0667
84 2.11893 5.29491 9.86504
87 7.11866 5.35311 10.7618
97 9.42367 8.07986 10.8759
110 2.06472 10.882 10.1599
47 3.73292 12.7908 9.98431
106 5.17705 13.0026 10.4926
125 3.70816 3.07925 12.0208
108 4.50671 3.65062 12.5509
104 7.02603 2.50915 13.4249
59 7.28094 3.76983 11.9657
85 13.0014 3.88508 12.6573
12 1.87529 6.66018 12.6177
7 7.9806 4.47119 11.4305
81 8.31664 5.36569 12.4155
25 8.94252 4.65954 12.891
62 9.35802 6.20619 13.2183
123 8.76606 7.11804 13.3565
18 8.53567 7.9211 12.2833
11 7.76114 7.16101 11.855
27 7.21559 8.66947 12.3038
61 10.8961 8.97348 13.6524
46 6.48946 9.82126 13.4008
83 1.3829 11.864 12.7634
82 3.67851 13.1797 13.2992
39 3.07725 12.4588 12.195
101 6.98878 13.0237 11.9713
89 10.7829 13.1827 13.646
ITEM: TIMESTEP
200
ITEM: NUMBER OF ATOMS
125
ITEM: BOX BOUNDS pp pp pp
0.0000000000000000e+00 1.3572088082974531e+01
0.0000000000000000e+00 1.3572088082974531e+01
0.0000000000000000e+00 1.3572088082974531e+01
ITEM: ATOMS id x y z
29 5.86688 2.30053 1.21428
75 0.672461 2.43667 1.36393
14 6.90293 3.83116 0.428302
3 12.247 2.99631 1.22538
10 4.47644 5.35582 2.03711
113 2.81023 6.12432 1.59428
8 7.76192 6.69993 0.213363
43 7.80642 4.40297 1.35771
26 8.33692 4.58777 0.351747
96 10.4882 5.67702 -0.0663729
2 13.1509 5.57307 1.54814
71 11.6805 5.07822 0.743113
55 3.11758 7.77774 1.61682
103 8.4069 7.84586 0.621779
122 13.4053 7.51336 2.02569
115 2.09419 10.6043 1.16169
116 2.52361 9.60839 1.57239
22 6.06831 10.2809 0.951983
78 11.3345 10.1592 0.447684
63 3.45372 12.5243 0.661234
79 6.39452 12.5584 2.03842
48 9.34501 12.2401 0.834104
13 13.4089 12.1475 0.744944
66 4.26759 1.2288 2.24024
44 3.30557 0.120027 3.85841
5 5.83776 2.46259 2.91086
49 5.09915 -0.0218587 4.38162
118 4.75278 1.442 3.76777
24 4.42901 2.60146 3.58428
100 9.07247 3.9909 4.18243
68 12.6317 2.80636 2.14723
102 1.5701 5.25979 3.98673
65 0.427787 4.95883 3.53348
107 9.54524 6.32763 3.90035
64 4.20437 8.42317 3.74557
52 4.59045 7.78669 2.42665
32 4.95419 7.53515 4.23074
92 8.70941 6.98251 3.32326
54 8.53338 8.73087 3.9511
19 7.88328 8.27224 4.56265
121 9.92452 7.15483 3.12713
76 2.65123 10.8258 2.51284
111 1.28129 12.1575 3.63704
112 10.5997 13.3419 2.87787
57 4.09186 1.45167 5.23315
86 7.69676 0.755985 6.08458
4 10.3352 0.90426 5.92923
124 6.74231 2.73473 5.54078
31 1.83473 6.08123 4.84281
94 1.47531 4.83958 5.01937
15 4.35926 6.13309 5.05941
17 11.1315 5.45165 5.24604
28 13.4392 4.45914 4.47737
114 2.06756 7.77024 5.11866
16 3.34789 7.81216 5.29838
23 4.50307 8.09414 5.95585
38 6.35078 7.97479 5.12253
58 6.19462 7.02491 5.74516
30 7.39059 7.14073 5.3771
37 8.67841 6.987 6.58937
109 8.94732 7.44247 5.09918
33 10.8406 8.30522 6.09969
50 12.0679 9.01801 6.03207
70 8.41431 9.76774 6.32512
67 9.92336 10.4586 6.17379
36 3.89576 11.8122 6.27984
34 6.14775 12.0251 5.00067
99 9.9384 11.5974 5.2143
56 1.05087 1.14054 7.03705
72 -0.0992934 0.399213 9.18225
9 10.2821 2.05913 8.03434
45 3.54676 3.97533 8.38276
74 11.341 3.31287 7.70598
53 1.60137 5.23519 8.63349
117 2.27818 6.00697 8.35931
80 0.749602 5.94182 8.73132
20 6.28862 6.17027 7.62285
88 10.4599 6.49399 7.22579
98 9.56564 6.54276 8.34685
1 10.4267 7.5062 7.12157
119 11.4823 8.92774 7.00626
42 11.9193 7.98794 7.15688
93 0.136189 10.6998 7.99747
95 0.811223 9.44948 7.58095
120 6.12943 10.3193 7.60244
73 10.0364 9.9333 7.3809
69 10.9401 9.782 8.97242
21 12.3032 10.3166 8.24158
6 13.1106 9.71956 9.13102
91 1.6822 12.6663 8.82039
51 6.05075 13.0833 8.09147
60 1.05135 0.0976656 9.38614
90 12.8391 0.648861 10.0536
41 0.578478 2.2668 9.63585
35 2.765 4.09598 10.6346
105 7.63855 2.83904 9.69064
40 7.39016 2.98666 11.1652
77 1.36276 5.17023 10.9651
84 1.93021 5.26926 9.78603
87 7.16011 5.35622 10.8848
97 9.44907 8.09612 10.6968
110 2.13153 10.9166 10.1262
47 3.71129 12.7927 10.0606
106 5.16047 12.9796 10.3547
125 3.59605 3.0962 12.0286
108 4.47968 3.76223 12.5809
104 7.09413 2.47373 13.4181
59 7.2391 3.78942 11.9802
85 13.0608 3.90443 12.513
12 1.71425 6.71023 12.3897
7 7.98701 4.39824 11.3755
81 8.36243 5.38556 12.3201
25 8.74504 4.50714 12.7966
62 9.35891 6.08462 13.2599
123 8.72945 7.11631 13.2772
18 8.56086 7.80967 12.3943
11 7.71334 7.19392 11.9147
27 7.13784 8.50341 12.4338
61 10.9136 9.05361 13.7375
46 6.4142 9.79782 13.4946
83 1.40024 11.9684 13.0481
82 3.62233 13.0851 13.2537
39 2.98734 12.4456 12.156
101 6.98945 12.9537 11.9419
89 10.6911 13.0638 13.765
ITEM: TIMESTEP
300
ITEM: NUMBER OF ATOMS
125
ITEM: BOX BOUNDS pp pp pp
0.0000000000000000e+00 1.3572088082974531e+01
0.0000000000000000e+00 1.3572088082974531e+01
0.0000000000000000e+00 1.3572088082974531e+01
ITEM: ATOMS id x y z
29 5.9436 2.36331 1.19925
75 0.608737 2.46647 1.43966
14 6.92157 3.82277 0.421026
3 12.1393 3.10477 1.2114
10 4.4865 5.22523 2.22497
113 2.66182 6.15059 1.78306
8 7.81982 6.70519 0.140753
43 7.84534 4.28395 1.31937
26 8.25656 4.41649 0.233293
96 10.4192 5.65719 13.4142
2 13.0647 5.61907 1.57108
71 11.6059 5.26221 0.906098
55 3.05782 7.71164 1.72298
103 8.57491 7.78014 0.543649
122 13.399 7.32192 2.04228
115 2.12639 10.6396 1.13384
116 2.60597 9.79498 1.56393
22 6.06345 10.2386 0.78821
78 11.2912 10.0494 0.392732
63 3.49137 12.2405 0.708179
79 6.48589 12.5966 2.10129
48 9.42461 12.2543 0.68069
13 13.4086 12.0571 0.705574
66 4.3458 1.12084 2.13962
44 3.39447 0.0822706 3.76595
5 5.92239 2.55742 2.97856
49 5.09318 13.5164 4.48695
118 4.72822 1.40833 3.70998
24 4.51253 2.73591 3.41436
100 9.16873 3.97053 4.08788
68 12.6286 2.84386 2.15451
102 1.55928 5.21561 3.87078
65 0.481106 4.84098 3.48702
107 9.46076 6.35851 3.96323
64 4.3703 8.37896 3.71224
52 4.57868 7.92749 2.4408
32 4.85564 7.51394 4.20097
92 8.71878 6.95287 3.5319
54 8.64529 8.73396 4.11375
19 7.74714 8.13994 4.73992
121 9.83167 7.18942 3.23405
76 2.90547 10.9207 2.43044
111 1.31409 12.1841 3.47102
112 10.4874 13.3177 2.87538
57 4.21064 1.36244 5.21519
86 7.58014 0.612775 6.15036
4 10.3765 1.03346 6.0106
124 6.74507 2.69593 5.50451
31 1.81838 6.03712 4.82036
94 1.43556 4.80497 4.92026
15 4.26093 6.1745 5.17044
17 11.0546 5.56862 5.19874
28 13.468 4.13366 4.34601
114 2.14917 7.81535 5.11435
16 3.60945 7.87879 5.41925
23 4.41765 8.09364 6.04254
38 6.54265 7.98295 5.22577
58 6.15947 7.06234 5.69655
30 7.33584 7.27477 5.45286
37 8.85542 6.9152 6.55279
109 8.90344 7.40155 5.04577
33 10.9445 8.27334 6.04968
50 12.0112 9.05798 6.03552
70 8.33543 9.84584 6.19245
67 9.77368 10.5921 5.99827
36 3.74237 11.9379 6.20096
34 6.13308 12.1207 4.9748
99 10.0649 11.5889 5.27371
56 1.05212 1.09943 7.01212
72 13.4711 0.490102 9.22572
9 10.323 2.06843 8.14132
45 3.42382 4.09038 8.33074
74 11.4156 3.43871 7.69894
53 1.82928 5.12995 8.79359
117 2.34581 6.13292 8.48757
80 0.63253 6.06229 8.68108
20 6.31159 6.24524 7.56045
88 10.4228 6.36785 7.32874
98 9.60022 6.50498 8.25043
1 10.3235 7.67571 7.06972
119 11.6515 9.05167 7.10085
42 11.9997 8.07539 7.29754
93 0.160396 10.8119 7.89144
95 0.876627 9.51882 7.52355
120 6.26231 10.4411 7.66153
73 9.92024 9.94467 7.27544
69 10.9731 9.78364 9.09508
21 12.3835 10.305 8.22311
6 13.0141 9.69817 9.2135
91 1.6743 12.9288 8.81786
51 6.25208 13.0495 8.11038
60 1.01063 -0.0127556 9.26446
90 12.7865 0.56417 10.2499
41 0.428726 2.16193 9.62042
35 2.80925 3.94554 10.7188
105 7.64001 2.9056 9.60401
40 7.21721 3.07009 11.1284
77 1.36601 5.10715 10.8505
84 1.74536 5.24759 9.763
87 7.2125 5.34434 11.0107
97 9.47121 8.11072 10.5316
110 2.1941 10.9499 10.0941
47 3.70141 12.7955 10.1346
106 5.13419 12.9566 10.2234
125 3.50545 3.12496 12.0436
108 4.43907 3.85502 12.5993
104 7.1547 2.45277 13.4166
59 7.20982 3.8061 11.9846
85 13.1163 3.92257 12.3783
12 1.56345 6.75621 12.1758
7 7.98057 4.34156 11.336
81 8.37673 5.44541 12.2021
25 8.57654 4.32238 12.7479
62 9.35548 5.97347 13.2976
123 8.68894 7.08781 13.2405
18 8.56523 7.71809 12.4752
11 7.67782 7.23685 11.9856
27 7.07637 8.33663 12.5545
61 10.9313 9.13243 0.246853
46 6.35116 9.76341 13.5638
83 1.41811 12.0665 13.3149
82 3.56758 12.9961 13.1836
39 2.90839 12.4396 12.1328
101 6.98971 12.8882 11.9141
89 10.6006 12.95 0.306155
ITEM: TIMESTEP
400
ITEM: NUMBER OF ATOMS
125
ITEM: BOX BOUNDS pp pp pp
0.0000000000000000e+00 1.3572088082974531e+01
0.0000000000000000e+00 1.3572088082974531e+01
0.0000000000000000e+00 1.3572088082974531e+01
ITEM: ATOMS id x y z
29 6.02398 2.42868 1.18476
75 0.539234 2.49789 1.5179
14 6.96743 3.81381 0.418526
3 12.0067 3.22742 1.14408
10 4.49542 5.09399 2.41434
113 2.51508 6.18393 1.97381
8 7.82188 6.69738 0.100009
43 7.87775 4.159 1.25121
26 8.15467 4.23999 0.13844
96 10.3606 5.63379 13.3257
2 12.9726 5.66759 1.59316
71 11.532 5.45034 1.06915
55 3.00048 7.63942 1.83308
103 8.73434 7.70364 0.456769
122 13.3918 7.12484 2.05795
115 2.13948 10.7204 1.09119
116 2.71732 9.95186 1.586
22 5.99292 10.3037 0.804889
78 11.3103 10.0978 0.360175
63 3.52876 11.964 0.738646
79 6.57814 12.6352 2.16477
48 9.51846 12.2765 0.521885
13 13.411 11.9659 0.664226
66 4.42714 1.01463 2.04632
44 3.49012 0.0472871 3.67381
5 5.99303 2.65146 3.04779
49 5.08352 13.4871 4.59197
118 4.69767 1.38625 3.65013
24 4.61161 2.85064 3.24278
100 9.26599 3.95047 3.99238
68 12.6541 2.86807 2.21322
102 1.53203 5.1771 3.76881
65 0.546145 4.71573 3.46783
107 9.44794 6.34986 4.06016
64 4.53257 8.34611 3.65195
52 4.55961 8.07433 2.47386
32 4.76032 7.47269 4.18803
92 8.67508 6.98917 3.71189
54 8.75142 8.72236 4.28593
19 7.62643 8.0092 4.91146
121 9.71457 7.2102 3.3586
76 3.15372 11.0045 2.32977
111 1.34773 12.2105 3.30307
112 10.3741 13.2933 2.87287
57 4.33458 1.26942 5.18624
86 7.46215 0.468741 6.21663
4 10.4183 1.16416 6.09327
124 6.74808 2.65618 5.46808
31 1.79062 5.95802 4.782
94 1.39641 4.79247 4.80851
15 4.1627 6.22429 5.28124
17 10.976 5.68732 5.15088
28 13.5132 3.82101 4.19776
114 2.24402 7.85817 5.11213
16 3.75334 7.91099 5.43327
23 4.44577 8.12185 6.22657
38 6.67499 8.07082 5.29764
58 6.14211 7.09844 5.64572
30 7.33524 7.32473 5.56753
37 9.04015 6.84659 6.5113
109 8.83973 7.36367 4.97943
33 11.0666 8.25046 6.02969
50 11.9354 9.08026 6.04841
70 8.26401 9.92734 6.05813
67 9.62269 10.7332 5.8234
36 3.58749 12.0648 6.12132
34 6.1161 12.2201 4.94769
99 10.1877 11.5639 5.34564
56 1.05338 1.05785 6.98708
72 13.4803 0.576952 9.28915
9 10.3665 2.08041 8.2479
45 3.29703 4.20861 8.27937
74 11.4887 3.5629 7.69275
53 2.06267 5.01846 8.75232
117 2.40312 6.24554 8.62478
80 0.531813 6.17452 8.63332
20 6.33469 6.32161 7.49592
88 10.3717 6.25864 7.43924
98 9.64583 6.46834 8.13637
1 10.231 7.84072 7.00561
119 11.7807 9.25767 7.17166
42 12.1051 8.08245 7.44369
93 0.177036 10.9094 7.78687
95 0.936309 9.59842 7.46916
120 6.39646 10.564 7.72119
73 9.80251 9.96044 7.15473
69 11.0115 9.7865 9.21462
21 12.4819 10.2834 8.21782
6 12.9065 9.68848 9.27733
91 1.76922 13.1116 8.75231
51 6.4551 13.0155 8.12992
60 0.843959 -0.0312324 9.20505
90 12.7473 0.478144 10.4291
41 0.275798 2.05046 9.60422
35 2.85255 3.79484 10.8068
105 7.63941 2.97415 9.52525
40 7.05089 3.16724 11.0887
77 1.35626 5.0297 10.7938
84 1.56855 5.26372 9.87426
87 7.28375 5.31223 11.1506
97 9.49286 8.12516 10.3661
110 2.25752 10.9843 10.0615
47 3.70479 12.7993 10.2108
106 5.09352 12.9318 10.0897
125 3.42783 3.16922 12.064
108 4.38176 3.93613 12.6081
104 7.21248 2.44496 13.4204
59 7.19316 3.82945 11.9869
85 13.1724 3.94089 12.2423
12 1.41108 6.80169 11.959
7 7.95691 4.29768 11.3114
81 8.38998 5.48328 12.0893
25 8.39592 4.15244 12.668
62 9.31909 5.88037 13.3289
123 8.74704 6.96012 13.2779
18 8.54469 7.72694 12.4453
11 7.63653 7.28875 12.0729
27 7.03047 8.15101 12.6713
61 10.8864 9.05282 0.306167
46 6.35426 9.61853 13.4501
83 1.43688 12.1653 13.5856
82 3.50088 12.8866 13.1144
39 2.83709 12.4411 12.126
101 6.98986 12.8221 11.886
89 10.4958 12.8271 0.42445
ITEM: TIMESTEP
500
ITEM: NUMBER OF ATOMS
125
ITEM: BOX BOUNDS pp pp pp
0.0000000000000000e+00 1.3572088082974531e+01
0.0000000000000000e+00 1.3572088082974531e+01
0.0000000000000000e+00 1.3572088082974531e+01
ITEM: ATOMS id x y z
29 6.11354 2.50092 1.16823
75 0.458509 2.53315 1.60401
14 7.05176 3.80385 0.420429
3 11.8761 3.35314 1.08921
10 4.50434 4.95383 2.61641
113 2.36206 6.22843 2.17713
8 7.74788 6.67292 0.0917063
43 7.89859 4.01971 1.15411
26 8.01733 4.04811 0.0794133
96 10.336 5.60027 13.2341
2 12.8679 5.72602 1.6165
71 11.4597 5.65218 1.24332
55 2.9404 7.55462 1.9535
103 8.89148 7.64709 0.388752
122 13.3816 6.90637 2.07199
115 2.14038 10.8391 1.03316
116 2.86161 10.1066 1.63622
22 5.91421 10.3783 0.83275
78 11.3476 10.1923 0.33089
63 3.56463 11.6724 0.764263
79 6.67657 12.6764 2.2325
48 9.56477 12.2715 0.346324
13 13.4179 11.8692 0.618394
66 4.51515 0.90356 1.95411
44 3.59853 0.0138466 3.57695
5 6.05026 2.7519 3.12175
49 5.07044 13.4603 4.70401
118 4.66146 1.36705 3.58702
24 4.73427 2.95946 3.05984
100 9.36979 3.92959 3.89051
68 12.6772 2.89828 2.25673
102 1.50593 5.15098 3.67171
65 0.611601 4.56792 3.46839
107 9.49101 6.30872 4.19447
64 4.68969 8.35887 3.54406
52 4.53426 8.23254 2.52411
32 4.67055 7.37657 4.21284
92 8.57016 7.08488 3.89512
54 8.8538 8.68837 4.47998
19 7.64573 7.96545 4.95696
121 9.58552 7.22597 3.50139
76 3.40785 11.0793 2.20381
111 1.38404 12.2384 3.12364
112 10.2533 13.2671 2.86996
57 4.47131 1.1647 5.14359
86 7.33588 0.315259 6.28758
4 10.4627 1.30385 6.18206
124 6.75141 2.61332 5.42925
31 1.7496 5.83995 4.72366
94 1.35412 4.7967 4.68533
15 4.05876 6.28658 5.39766
17 10.8904 5.8148 5.09918
28 13.5751 3.50505 4.02712
114 2.35526 7.90218 5.11166
16 3.81242 7.91336 5.353
23 4.56745 8.17549 6.50662
38 6.62743 8.27401 5.36806
58 6.15133 7.15247 5.5869
30 7.3831 7.15369 5.82984
37 9.24497 6.77809 6.46756
109 8.75258 7.32657 4.88624
33 11.2024 8.23476 6.03111
50 11.8406 9.09139 6.07784
70 8.19702 10.0173 5.91406
67 9.45174 10.8721 5.64715
36 3.42227 12.2002 6.03633
34 6.09414 12.3309 4.91751
99 10.3227 11.5394 5.42217
56 1.05483 1.01303 6.96105
72 13.4699 0.689839 9.3783
9 10.4144 2.09474 8.36038
45 3.15267 4.34131 8.22838
74 11.5653 3.69363 7.68679
53 2.31756 4.91971 8.71057
117 2.45346 6.34092 8.77644
80 0.431578 6.29094 8.58473
20 6.35941 6.404 7.425
88 10.4073 6.12039 7.46647
98 9.59976 6.46314 8.09469
1 10.1429 8.01177 6.92451
119 11.9225 9.45871 7.2417
42 12.2075 8.11103 7.58753
93 0.188054 10.9988 7.678
95 0.994102 9.69201 7.41379
120 6.53961 10.6954 7.7849
73 9.67559 9.98049 7.01556
69 11.0578 9.79004 9.33934
21 12.6002 10.2484 8.22403
6 12.782 9.68977 9.32428
91 1.92018 13.2708 8.65302
51 6.67161 12.9791 8.15075
60 0.62762 -0.0250183 9.16859
90 12.7177 0.388369 10.6026
41 0.109788 1.91947 9.58522
35 2.90095 3.63178 10.9101
105 7.63684 3.04848 9.44743
40 6.88486 3.28341 11.0461
77 1.28604 4.89036 10.9771
84 1.44886 5.33765 9.73682
87 7.3833 5.25549 11.3157
97 9.51575 8.14053 10.19
110 2.32558 11.0217 10.0267
47 3.72406 12.8044 10.2914
106 5.03351 12.9037 9.94817
125 3.35562 3.23303 12.0847
108 4.30531 4.01063 12.6085
104 7.27106 2.45159 13.4305
59 7.18948 3.86082 11.9979
85 13.2323 3.96054 12.0971
12 1.24848 6.84915 11.7271
7 7.9204 4.26772 11.3002
81 8.39322 5.50347 11.9697
25 8.1902 3.98047 12.5224
62 9.22389 5.80479 13.3561
123 8.90604 6.79511 13.2394
18 8.54477 7.75443 12.4295
11 7.561 7.33459 12.1699
27 6.99717 7.94069 12.7921
61 10.8214 8.925 0.364007
46 6.36247 9.45562 13.317
83 1.4562 12.2688 13.8764
82 3.41698 12.7542 13.0322
39 2.77262 12.4507 12.1374
101 6.99001 12.7515 11.856
89 10.4378 12.7248 0.557022
ITEM: TIMESTEP
600
ITEM: NUMBER OF ATOMS
125
ITEM: BOX BOUNDS pp pp pp
0.0000000000000000e+00 1.3572088082974531e+01
0.0000000000000000e+00 1.3572088082974531e+01
0.0000000000000000e+00 1.3572088082974531e+01
ITEM: ATOMS id x y z
29 6.20679 2.57557 1.14941
75 0.369784 2.57049 1.69305
14 7.0453 3.76217 0.455143
3 11.7541 3.47384 1.04498
10 4.51319 4.81406 2.81605
113 2.21575 6.28317 2.377
8 7.69991 6.66228 0.067689
43 7.91543 3.87952 1.08031
26 7.97378 3.87523 -0.0511773
96 10.3079 5.56908 13.1461
2 12.7587 5.79835 1.64234
71 11.4003 5.8515 1.4168
55 2.87895 7.46049 2.07555
103 9.03659 7.5915 0.316817
122 13.3642 6.67527 2.07964
115 2.15838 10.9535 0.984946
116 3.00415 10.2884 1.68567
22 5.84024 10.4445 0.851146
78 11.3777 10.2692 0.302301
63 3.59178 11.3801 0.796168
79 6.77369 12.7171 2.29932
48 9.46996 12.1921 0.150452
13 13.4298 11.775 0.572188
66 4.60222 0.79563 1.86936
44 3.71195 13.5579 3.4829
5 6.08592 2.85268 3.19251
49 5.05598 13.4397 4.81646
118 4.62317 1.34648 3.52718
24 4.87498 3.05903 2.88123
100 9.47224 3.90948 3.79005
68 12.7027 2.92995 2.28707
102 1.50531 5.15756 3.57188
65 0.658455 4.399 3.48583
107 9.51742 6.29831 4.32486
64 4.85824 8.36946 3.52591
52 4.49065 8.37856 2.49428
32 4.57703 7.29305 4.24144
92 8.42672 7.13698 3.93057
54 8.94315 8.62887 4.67789
19 7.70606 7.91094 4.99219
121 9.46885 7.23582 3.65155
76 3.64634 11.1389 2.05756
111 1.42003 12.2659 2.94649
112 10.134 13.2413 2.86656
57 4.61186 1.05064 5.0888
86 7.21072 0.163228 6.35816
4 10.5066 1.44191 6.27027
124 6.75459 2.57094 5.39053
31 1.71066 5.72511 4.64797
94 1.29404 4.77468 4.57564
15 3.95702 6.35879 5.50924
17 10.8013 5.94236 5.04632
28 0.0741895 3.2101 3.84974
114 2.47762 7.94429 5.11306
16 3.87453 7.90847 5.27519
23 4.68049 8.22417 6.76898
38 6.56727 8.44398 5.45031
58 6.1916 7.22822 5.52894
30 7.40706 6.99611 6.07562
37 9.45445 6.71491 6.42932
109 8.68988 7.33923 4.9478
33 11.3017 8.18053 6.04496
50 11.7733 9.14442 6.13319
70 8.1414 10.1097 5.77072
67 9.27613 10.9981 5.48225
36 3.25947 12.334 5.95229
34 6.06603 12.4477 4.88669
99 10.4556 11.517 5.49624
56 1.05644 0.968265 6.93622
72 13.4052 0.84164 9.49017
9 10.4624 2.10972 8.47031
45 3.09632 4.4088 8.10907
74 11.6401 3.82157 7.68136
53 2.47398 4.90663 8.75149
117 2.49717 6.41628 8.92797
80 0.336827 6.40361 8.53919
20 6.38453 6.4866 7.35198
88 10.4954 5.96752 7.43937
98 9.49638 6.48109 8.09686
1 10.0653 8.17643 6.83358
119 12.0692 9.64199 7.30342
42 12.3023 8.15693 7.72079
93 0.193755 11.0727 7.57382
95 1.04552 9.79227 7.36109
120 6.68089 10.8258 7.84786
73 9.54831 10.0024 6.87045
69 11.1101 9.79332 9.46064
21 12.7216 10.2 8.23672
6 12.6507 9.70178 9.34852
91 2.05472 13.4318 8.56061
51 6.8852 12.9429 8.17065
60 0.475612 13.5066 9.11531
90 12.6967 0.303164 10.7615
41 -0.054749 1.78965 9.56604
35 2.9546 3.46643 11.0301
105 7.63278 3.12278 9.37485
40 6.7371 3.41466 11.0145
77 1.2176 4.75567 11.1518
84 1.34121 5.40757 9.59111
87 7.48735 5.19527 11.4921
97 9.53853 8.15597 10.0163
110 2.39317 11.0591 9.99243
47 3.76 12.81 10.3668
106 4.95644 12.8747 9.81301
125 3.29218 3.31357 12.0956
108 4.21484 4.07213 12.6003
104 7.32692 2.47687 13.4475
59 7.12022 3.88617 11.992
85 13.2923 3.98038 11.9532
12 1.08807 6.89471 11.4976
7 7.90014 4.23754 11.2959
81 8.38625 5.5092 11.8514
25 8.02928 3.82202 12.3856
62 9.14304 5.65738 13.3883
123 9.02099 6.71151 13.1712
18 8.55861 7.76955 12.4441
11 7.52896 7.31516 12.2097
27 6.92108 7.7845 12.974
61 10.7635 8.81472 0.420773
46 6.36866 9.29809 13.1934
83 1.47413 12.366 0.593072
82 3.33535 12.6194 12.9572
39 2.70751 12.4607 12.147
101 6.99016 12.6819 11.8263
89 10.521 12.6984 0.711004
ITEM: TIMESTEP
700
ITEM: NUMBER OF ATOMS
125
ITEM: BOX BOUNDS pp pp pp
0.0000000000000000e+00 1.3572088082974531e+01
0.0000000000000000e+00 1.3572088082974531e+01
0.0000000000000000e+00 1.3572088082974531e+01
ITEM: ATOMS id x y z
29 6.30544 2.65488 1.12554
75 0.269483 2.61117 1.78682
14 6.93524 3.6853 0.504619
3 11.6397 3.58928 1.00709
10 4.52271 4.67443 3.01009
113 2.08004 6.34845 2.5704
8 7.67266 6.66709 0.0242974
43 7.95233 3.74416 1.02347
26 8.00781 3.71438 -0.218453
96 10.257 5.54367 13.0654
2 12.6287 5.86628 1.66128
71 11.3605 6.04415 1.58744
55 2.81294 7.35546 2.19858
103 9.16916 7.5304 0.232376
122 13.3531 6.45349 2.09021
115 2.20037 11.0627 0.949385
116 3.12847 10.4817 1.71427
22 5.76927 10.5059 0.865863
78 11.4035 10.336 0.275122
63 3.60326 11.0838 0.851307
79 6.86806 12.7566 2.36426
48 9.38768 12.1195 -0.0337376
13 13.4462 11.6849 0.527358
66 4.68628 0.691815 1.79264
44 3.82897 13.5374 3.393
5 6.09802 2.95334 3.2549
49 5.0436 13.4286 4.92788
118 4.58371 1.32043 3.47239
24 5.03288 3.15243 2.71371
100 9.5718 3.89034 3.69253
68 12.7392 2.95952 2.30798
102 1.50952 5.17887 3.47608
65 0.710333 4.23028 3.52501
107 9.53336 6.31463 4.45181
64 5.02644 8.36521 3.55856
52 4.43688 8.51597 2.42815
32 4.48039 7.23417 4.2746
92 8.24216 7.15846 3.85895
54 9.01429 8.53982 4.87444
19 7.75479 7.85703 5.03285
121 9.37333 7.2404 3.81033
76 3.87881 11.2028 1.89584
111 1.4551 12.2924 2.7735
112 10.0183 13.2159 2.86251
57 4.75492 0.922144 5.02257
86 7.08847 0.0143772 6.42786
4 10.5493 1.57626 6.35665
124 6.75749 2.52985 5.35229
31 1.69881 5.67133 4.55808
94 1.19175 4.67139 4.4632
15 3.85944 6.44181 5.61226
17 10.7038 6.07001 4.99088
28 0.150433 2.93961 3.66956
114 2.6136 7.98342 5.1161
16 3.93144 7.88914 5.18997
23 4.7889 8.26948 7.01807
38 6.52102 8.57625 5.52691
58 6.25616 7.32228 5.47853
30 7.41548 6.85788 6.29585
37 9.6635 6.65666 6.39792
109 8.67551 7.38459 5.12364
33 11.369 8.0938 6.06545
50 11.7316 9.23685 6.21147
70 8.1004 10.2049 5.63006
67 9.11447 11.1181 5.32847
36 3.10168 12.4642 5.87038
34 6.02791 12.5726 4.8566
99 10.5662 11.4865 5.56866
56 1.05833 0.924139 6.91312
72 13.312 0.722525 9.58564
9 10.5095 2.12475 8.57615
45 3.18492 4.36629 7.87027
74 11.7121 3.94553 7.67636
53 2.47314 5.01794 8.92254
117 2.53459 6.47422 9.07585
80 0.24801 6.51085 8.49754
20 6.41205 6.5693 7.2751
88 10.5621 5.83004 7.41791
98 9.41085 6.49253 8.08321
1 9.99874 8.33239 6.73658
119 12.2194 9.8119 7.36291
42 12.3914 8.21298 7.84488
93 0.196247 11.1299 7.47605
95 1.08922 9.89765 7.31165
120 6.81828 10.9535 7.9092
73 9.42228 10.0246 6.72262
69 11.1717 9.79575 9.57643
21 12.8344 10.1389 8.24985
6 12.5142 9.72304 9.34998
91 2.1791 13.5891 8.47229
51 7.09282 12.9073 8.18829
60 0.32949 13.4745 9.0653
90 12.6819 0.224313 10.9062
41 -0.185558 1.91856 9.566
35 3.00287 3.30536 11.1323
105 7.62769 3.19579 9.30735
40 6.6086 3.55266 10.987
77 1.14986 4.62622 11.3172
84 1.24718 5.47515 9.44401
87 7.46038 5.12406 11.6421
97 9.56106 8.17136 9.8474
110 2.45933 11.096 9.95927
47 3.81279 12.8157 10.4322
106 4.86261 12.8454 9.69049
125 3.25016 3.40626 12.1303
108 4.11032 4.11848 12.5827
104 7.3807 2.52864 13.4728
59 6.88368 3.92437 11.9188
85 13.3531 4.00096 11.8122
12 0.932315 6.9377 11.2741
7 7.90187 4.16541 11.2947
81 8.48288 5.54243 11.7784
25 8.034 3.67265 12.3074
62 9.08739 5.46765 13.4194
123 9.10089 6.69128 13.0918
18 8.56635 7.76139 12.4794
11 7.54069 7.26725 12.2248
27 6.82686 7.65773 13.19
61 10.7096 8.71488 0.475265
46 6.37577 9.14125 13.0756
83 1.49162 12.4524 0.875086
82 3.304 12.498 12.9489
39 2.59628 12.4591 12.0936
101 6.99031 12.6143 11.7975
89 10.5918 12.6684 0.855241
ITEM: TIMESTEP
800
ITEM: NUMBER OF ATOMS
125