ITEM: TIMESTEP
0
ITEM: NUMBER OF ATOMS
125
ITEM: BOX BOUNDS pp pp pp
0.0000000000000000e+00 5.3860867250797098e+00
0.0000000000000000e+00 5.3860867250797098e+00
0.0000000000000000e+00 5.3860867250797098e+00
ITEM: ATOMS id x y z
7 0.563775 1.25163 1.41273
28 2.28544 1.93139 0.122959
52 0.299555 0.330905 1.68467
56 1.04998 1.7746 2.17252
58 1.40431 1.6807 0.76605
88 1.47532 0.777216 1.99556
53 0.752802 0.40159 0.839709
61 1.93531 2.11893 1.76208
37 1.85682 0.400925 0.933963
31 0.67158 2.44714 1.17957
63 2.44687 1.10949 2.2557
90 0.0557851 2.53343 2.36944
23 2.64942 0.0927081 2.02932
46 5.04776 1.99911 0.137287
83 3.29469 1.57956 2.68939
32 4.22005 1.97873 0.837804
26 4.80493 0.516922 2.25342
15 5.06134 2.24809 1.36421
35 4.79282 1.46375 2.51318
39 2.82063 1.21203 1.3522
1 4.53397 1.21122 1.45688
13 3.24852 2.07931 0.745728
49 3.26856 0.259866 0.707427
25 4.27793 1.13657 0.224463
60 4.05746 1.9302 1.91789
110 5.18954 0.609239 0.408669
30 4.28757 0.145945 0.970443
64 3.00516 2.19126 1.746
48 3.68004 0.846932 1.95408
5 2.7517 1.05814 0.23965
42 2.55215 2.971 0.972695
12 0.797592 5.11307 0.056385
27 2.58512 5.00591 0.909673
41 1.02142 4.10381 0.854789
43 2.06472 3.99604 1.35971
47 1.88254 3.4297 0.052152
67 2.30281 3.13622 1.93415
72 1.55675 4.8374 1.70349
18 1.50203 2.98909 0.905952
38 2.25759 4.27575 2.29233
115 1.26601 3.51989 1.94099
76 0.337408 4.32891 1.61275
9 1.84085 4.63671 0.316759
36 0.231738 2.83559 0.401674
97 1.1166 2.7841 2.65132
3 5.24231 4.883 0.607342
65 3.69717 2.79538 2.34686
91 4.92972 5.03449 1.78433
20 3.50427 4.95519 1.88668
45 3.73756 2.97757 0.881739
40 5.28012 3.26964 1.53008
44 4.2668 3.6644 1.54018
50 3.87925 4.44524 0.997481
75 3.08781 3.94262 1.55207
16 2.90243 4.03668 0.589311
105 3.38477 4.91534 0.0174444
124 4.84165 3.62138 0.62389
93 4.00642 4.08588 2.68442
96 5.14202 3.72235 2.34793
94 2.9418 3.61662 2.69292
14 2.46212 0.0235938 5.24781
8 0.757976 1.06703 5.36759
68 2.21347 2.19938 2.79599
81 0.711278 0.671301 3.29163
78 1.60867 1.29905 2.93705
62 0.622944 1.78043 3.27957
11 1.13392 1.36274 4.1101
57 1.61088 0.470237 3.74207
82 0.532695 0.579373 4.35141
86 2.16815 1.55356 3.72165
111 1.47697 2.41552 3.75936
122 1.18855 2.0626 5.25075
114 2.0244 1.13169 4.70878
4 2.55401 0.421279 4.08281
117 0.421749 1.97292 4.52944
87 1.44755 0.0974766 4.70041
77 1.82142 0.147924 2.75698
104 2.83662 0.542043 3.02076
113 5.04238 1.07932 4.82599
33 3.54993 1.57717 4.95355
51 3.88458 0.645425 3.14644
85 5.29867 1.2563 3.67
80 5.06684 0.244223 3.53656
34 3.25016 0.440072 4.89661
120 3.51668 2.32505 3.31741
106 4.88133 2.28202 3.13076
118 3.03795 2.21115 4.32202
89 3.28401 1.24859 3.99149
101 4.14784 1.59259 3.58311
84 3.50948 0.19001 3.88502
109 4.08262 0.728347 4.47935
112 4.09248 2.41698 4.20043
59 0.201155 5.20356 2.78626
19 2.53736 4.15647 5.08441
21 0.2732 3.91232 5.35972
71 0.901847 4.48811 2.73097
54 2.13881 4.81698 4.24245
107 1.95067 2.82067 4.66354
24 1.03376 3.31138 3.87282
103 0.870667 4.98224 3.89203
2 0.0877579 4.81984 4.66954
22 1.31778 4.39123 4.79005
73 1.74663 4.52081 3.32352
98 0.870004 2.94661 5.03948
74 1.92384 3.36963 3.03366
29 1.99152 3.65595 4.1151
92 0.352832 4.16128 3.52925
116 0.155458 2.96564 3.42846
10 4.39512 2.90386 5.12992
66 4.62206 5.21415 5.29577
70 4.4586 5.05109 2.87361
100 3.65141 3.8198 5.29342
17 4.15968 5.07223 4.41988
99 2.71733 3.01966 3.57583
55 3.21183 4.94389 2.92537
108 3.173 4.70358 4.42735
102 5.16232 3.57387 4.38761
79 2.76226 4.0512 3.68728
119 3.233 3.29209 4.47498
6 4.67639 4.22976 4.87845
123 3.127 2.71606 5.37887
69 3.74384 4.48565 3.63099
121 4.22021 3.69148 4.12904
95 4.64384 3.33884 3.23702
125 4.82489 4.63948 3.71955
ITEM: TIMESTEP
100
ITEM: NUMBER OF ATOMS
125
ITEM: BOX BOUNDS pp pp pp
0.0000000000000000e+00 5.3860867250797098e+00
0.0000000000000000e+00 5.3860867250797098e+00
0.0000000000000000e+00 5.3860867250797098e+00
ITEM: ATOMS id x y z
7 0.39533 1.4352 1.3784
28 2.24082 2.01097 -0.0872307
52 0.175121 0.393844 1.83675
56 1.02546 1.80819 2.23286
58 1.46383 1.60077 0.86982
88 1.43643 0.739743 1.93923
53 0.64105 0.33717 0.858203
61 1.90873 2.10339 1.64022
37 1.75856 0.385123 0.942427
31 0.786167 2.34956 1.32841
63 2.35444 1.18785 2.29419
90 0.171951 2.5096 2.31575
23 2.53518 0.116113 1.90353
46 4.909 1.98248 0.0645027
83 3.18943 1.4752 2.86557
32 4.21463 2.11417 0.818271
26 4.61722 0.437818 2.27608
15 5.07482 2.20748 1.37384
35 4.75537 1.50522 2.30725
39 2.74369 1.17777 1.32724
1 4.5388 1.10973 1.28576
13 3.19286 1.84073 0.748816
49 3.43193 0.375819 0.798749
25 4.3231 1.18211 0.238036
60 3.89967 1.94305 1.83853
110 5.12735 0.574811 0.467965
30 4.46676 0.0895422 1.00853
64 3.0102 2.41615 1.68847
48 3.71139 0.940305 2.0885
5 2.70529 1.04863 0.150401
42 2.66709 2.96532 0.800804
12 0.750715 5.00059 0.115501
27 2.65355 4.93835 0.980592
41 1.06543 4.11608 0.815352
43 2.09342 4.07586 1.29835
47 1.79706 3.57546 0.112495
67 2.40018 3.2317 1.98552
72 1.55762 4.96461 1.74409
18 1.56553 3.09704 1.04417
38 2.25288 4.22032 2.43476
115 1.29198 3.74817 2.01636
76 0.425694 4.1657 1.68722
9 1.71156 4.68859 0.424169
36 0.170491 2.8248 0.41707
97 1.06551 2.84253 2.58903
3 5.23133 4.89664 0.591869
65 3.75633 2.86964 2.40194
91 5.02924 4.79398 1.84695
20 3.54909 5.00859 1.80733
45 3.83852 3.02758 0.974375
40 5.36044 3.16091 1.32771
44 4.32753 3.61469 1.62119
50 3.82799 4.35735 0.942324
75 3.18854 3.89296 1.64379
16 2.79509 3.98138 0.587387
105 3.48812 4.83653 0.0613526
124 4.74816 3.57934 0.576492
93 3.98409 4.10488 2.69109
96 4.95411 3.91418 2.30116
94 3.07688 3.58349 2.70241
14 2.41641 -0.164666 5.22779
8 0.723057 1.11507 5.26535
68 2.27939 2.13611 2.82048
81 0.718704 0.627047 3.29723
78 1.56447 1.28068 2.89252
62 0.681872 1.94766 3.24379
11 1.21683 1.30725 4.12319
57 1.65719 0.418843 3.72583
82 0.531073 0.481233 4.42279
86 2.28675 1.40892 3.70168
111 1.55663 2.25259 3.88233
122 1.26005 2.04273 5.24788
114 1.99383 1.18432 4.74664
4 2.52473 0.454936 4.13243
117 0.380366 1.85508 4.6518
87 1.48647 0.132816 4.87188
77 1.83827 0.0977132 2.75037
104 2.77728 0.519954 3.0645
113 5.08696 1.01733 4.88886
33 3.64847 1.54635 4.95789
51 3.96479 0.845853 3.06328
85 5.22927 1.32887 3.74926
80 5.12324 0.331275 3.54024
34 3.22314 0.498304 4.88248
120 3.55188 2.42366 3.2899
106 4.83185 2.21029 3.09166
118 2.89008 2.26808 4.13626
89 3.26477 1.19726 4.02395
101 4.27476 1.56692 3.6227
84 3.45494 0.0437683 3.81822
109 4.20589 0.736862 4.32519
112 3.98862 2.24975 4.40473
59 0.250095 5.2195 2.72146
19 2.47902 4.12528 4.93028
21 0.184455 3.92272 5.31873
71 0.983015 4.4454 2.60084
54 2.0272 4.85804 4.13378
107 1.84869 2.75639 4.71663
24 1.04184 3.33599 4.0883
103 1.00418 5.00079 3.79572
2 0.127945 4.93775 4.69008
22 1.38787 4.2647 4.80169
73 1.80417 4.55055 3.18778
98 0.867564 3.16155 4.99499
74 1.8744 3.46028 3.03784
29 2.04694 3.70231 4.16043
92 0.292586 4.13585 3.50651
116 0.195355 2.93694 3.50149
10 4.5007 2.99361 5.11809
66 4.47877 5.27689 5.25558
70 4.42302 5.08646 2.85653
100 3.66515 3.78561 5.36121
17 4.26735 4.99993 4.32556
99 2.68199 3.02173 3.54293
55 3.26132 4.943 2.90446
108 3.12124 4.67713 4.47034
102 5.34253 3.55619 4.29627
79 2.75768 4.25093 3.47484
119 2.97786 3.26272 4.51895
6 4.61155 4.22942 5.08073
123 3.40089 2.70683 5.34029
69 3.77655 4.39867 3.66376
121 4.16915 3.68409 4.22505
95 4.59629 3.43273 3.19168
125 4.81526 4.59268 3.69169
ITEM: TIMESTEP
200
ITEM: NUMBER OF ATOMS
125
ITEM: BOX BOUNDS pp pp pp
0.0000000000000000e+00 5.3860867250797098e+00
0.0000000000000000e+00 5.3860867250797098e+00
0.0000000000000000e+00 5.3860867250797098e+00
ITEM: ATOMS id x y z
7 0.317501 1.30304 1.31132
28 2.48146 2.13347 -0.149848
52 0.152032 0.552926 1.92232
56 0.958005 1.80177 2.2389
58 1.4867 1.40319 0.940667
88 1.33914 0.714301 1.84656
53 0.679392 0.330273 0.985654
61 1.97543 2.1683 1.60088
37 1.72043 0.354751 0.919567
31 0.937299 2.42667 1.42093
63 2.22625 1.29308 2.21024
90 0.166551 2.4883 2.25465
23 2.42214 0.196441 1.80491
46 4.89246 2.02915 -0.102308
83 3.12158 1.50708 3.06652
32 4.14801 2.12831 0.665996
26 4.49268 0.448184 2.13359
15 5.05009 2.19323 1.43444
35 4.7539 1.50303 2.09
39 2.62205 1.00844 1.29086
1 4.62141 1.01184 1.22581
13 3.11196 1.75973 0.594735
49 3.59918 0.54458 0.876939
25 4.2139 1.08977 0.317003
60 3.79799 1.98294 1.77553
110 5.20546 0.632789 0.446014
30 4.44691 -0.0886222 1.19637
64 2.97271 2.61547 1.64931
48 3.57888 0.990808 2.04578
5 2.63015 0.967025 0.190023
42 2.78364 2.88609 0.618505
12 0.768889 4.81995 0.0772635
27 2.76147 4.91441 1.07278
41 0.906168 3.9187 0.842241
43 2.04647 4.15122 1.2549
47 1.71459 3.67116 0.275323
67 2.33768 3.28488 2.02877
72 1.52712 5.05314 1.77069
18 1.63061 3.1708 1.22446
38 2.38529 4.24776 2.28247
115 1.52338 3.75698 1.97269
76 0.478336 4.01325 1.73846
9 1.73863 4.78401 0.509385
36 0.104519 2.7674 0.307373
97 1.14561 2.89735 2.60051
3 5.21413 4.78164 0.626582
65 3.93345 2.96209 2.3181
91 4.97951 4.81456 1.79169
20 3.63129 5.06022 1.7209
45 3.73902 3.12724 0.966829
40 5.51743 3.21066 1.34646
44 4.33176 3.59575 1.70027
50 3.87924 4.27116 0.905346
75 3.28124 3.81882 1.80295
16 2.77821 3.94012 0.488594
105 3.5379 4.86333 0.100445
124 4.60133 3.59641 0.580695
93 3.93097 4.16952 2.52536
96 4.99434 3.9715 2.54598
94 3.17003 3.55377 2.80272
14 2.54789 -0.232584 5.12898
8 0.816674 1.03901 5.3072
68 2.33973 2.16195 2.85637
81 0.669024 0.626346 3.27287
78 1.4439 1.17987 3.00542
62 0.788712 2.08324 3.2075
11 1.12082 1.239 4.0714
57 1.61553 0.426812 3.68226
82 0.570377 0.421052 4.39223
86 2.33274 1.3042 3.67427
111 1.66774 2.1326 3.86958
122 1.17574 2.06131 5.217
114 1.99342 1.15966 4.80161
4 2.53421 0.417696 4.2797
117 0.304922 1.88641 4.66606
87 1.48821 0.199854 4.99833
77 1.82337 0.0935498 2.65911
104 2.73377 0.449899 3.19852
113 5.21058 0.986249 4.8853
33 3.52905 1.44599 5.06652
51 4.05812 0.764733 3.05369
85 5.30818 1.42693 3.89558
80 5.0547 0.3129 3.60723
34 3.43159 0.43759 4.8933
120 3.59754 2.49716 3.36259
106 4.88304 2.35148 3.03445
118 2.7299 2.13637 4.10356
89 3.33671 1.14367 3.98945
101 4.2022 1.6192 3.7974
84 3.49216 0.00697569 3.68276
109 4.19937 0.609716 4.12983
112 3.97361 2.34676 4.50213
59 0.222558 5.19449 2.68293
19 2.39149 4.17152 4.99113
21 0.155375 3.99875 5.33665
71 0.940191 4.54076 2.56273
54 2.02802 4.91312 4.22116
107 1.77557 2.84477 4.72836
24 1.10135 3.41475 3.9947
103 0.977529 4.97083 3.73937
2 0.0296505 4.92833 4.6421
22 1.34629 4.19445 4.79351
73 1.7275 4.57801 3.23689
98 0.873876 3.28826 5.19166
74 1.74876 3.56704 3.02302
29 2.02712 3.74506 3.9814
92 0.533723 3.98896 3.35364
116 0.328236 2.87551 3.51626
10 4.61202 3.05139 5.06112
66 4.37596 5.50662 5.41942
70 4.28759 5.02463 2.90183
100 3.67734 3.67599 5.38728
17 4.21727 5.03498 4.43043
99 2.61015 3.06987 3.42391
55 3.28643 4.99554 2.69066
108 3.14839 4.74684 4.39232
102 5.49426 3.53473 4.32664
79 2.71179 4.36939 3.36041
119 2.80916 3.28875 4.58275
6 4.49357 4.33744 5.25008
123 3.66757 2.62688 5.38409
69 3.77906 4.32542 3.59169
121 4.11325 3.55161 4.39148
95 4.47674 3.47725 3.24304
125 4.8883 4.4196 3.58265
ITEM: TIMESTEP
300
ITEM: NUMBER OF ATOMS
125
ITEM: BOX BOUNDS pp pp pp
0.0000000000000000e+00 5.3860867250797098e+00
0.0000000000000000e+00 5.3860867250797098e+00
0.0000000000000000e+00 5.3860867250797098e+00
ITEM: ATOMS id x y z
7 0.389281 1.24619 1.13167
28 2.69919 2.19373 -0.300528
52 0.115049 0.624587 2.07453
56 0.981466 1.63393 2.19131
58 1.45835 1.27541 0.973325
88 1.21922 0.744865 1.83537
53 0.739528 0.221553 1.09569
61 2.06725 2.24081 1.61795
37 1.81156 0.353042 0.87567
31 0.967232 2.49967 1.41014
63 2.1044 1.34548 2.20753
90 0.215699 2.56665 2.27563
23 2.38014 0.178647 1.84805
46 4.75071 1.96552 -0.263653
83 3.16648 1.55243 3.11475
32 4.19416 2.00668 0.757158
26 4.41721 0.34637 2.03529
15 4.88802 2.33331 1.27886
35 4.76387 1.51487 2.14124
39 2.56331 1.00638 1.14187
1 4.70782 0.931447 1.21198
13 3.16863 1.813 0.651753
49 3.6148 0.624442 1.03659
25 4.20884 1.2299 0.235043
60 3.79687 2.0195 1.67793
110 5.32815 0.61759 0.472575
30 4.41696 -0.0918153 1.02909
64 3.03466 2.6986 1.55344
48 3.3321 1.00476 1.94102
5 2.55536 0.728848 0.18513
42 2.78693 2.81728 0.474487
12 0.796718 4.77571 0.0543452
27 2.89761 4.89777 1.03967
41 0.704528 3.74114 0.800422
43 2.10123 4.21344 1.23591
47 1.78749 3.72384 0.395537
67 2.35262 3.19299 2.18481
72 1.4316 4.99519 1.68132
18 1.78766 3.14572 1.22177
38 2.55639 4.46156 2.18096
115 1.38775 3.87631 2.08242
76 0.420617 4.06225 1.93464
9 1.88086 4.85954 0.415904
36 0.0928088 2.71734 0.27317
97 1.16268 2.85307 2.52211
3 5.17831 4.6992 0.707033
65 4.07148 2.88917 2.33587
91 5.09817 4.77832 1.88134
20 3.6289 5.06896 1.6623
45 3.6237 3.2122 0.976368
40 5.53775 3.10461 1.31267
44 4.50192 3.70452 1.65055
50 3.87937 4.24555 1.00671
75 3.27159 3.72645 1.74138
16 2.85328 3.95212 0.531018
105 3.5049 4.87987 0.0888772
124 4.64979 3.52242 0.674507
93 3.98585 4.28006 2.35154
96 5.21392 3.99312 2.68483
94 3.22901 3.57954 2.87586
14 2.6099 -0.164 5.22191
8 0.980735 0.958002 5.44397
68 2.30725 2.21664 2.8725
81 0.477667 0.591961 3.25497
78 1.44565 1.19333 3.00845
62 0.92585 2.01442 3.22976
11 1.00063 1.30131 4.05492
57 1.68101 0.326853 3.71599
82 0.632929 0.341884 4.33628
86 2.19112 1.21204 3.66873
111 1.7365 2.12441 3.82226
122 1.19041 2.09538 5.26014
114 1.89866 1.21769 4.77174
4 2.64201 0.41775 4.38847
117 0.36185 2.10614 4.65426
87 1.53703 0.193665 5.08905
77 1.75648 0.158492 2.6602
104 2.6239 0.403369 3.20181
113 5.09811 0.920337 4.77933
33 3.30434 1.45162 5.00146
51 4.117 0.69291 3.09273
85 5.37379 1.41039 3.84093
80 5.05113 0.193397 3.62903
34 3.61598 0.321264 4.87439
120 3.63643 2.57876 3.43708
106 4.8333 2.45892 3.0418
118 2.71415 2.08242 4.13461
89 3.33901 1.03365 4.0661
101 4.2279 1.74068 3.80477
84 3.55653 -0.0352702 3.57218
109 4.27052 0.581173 4.14506
112 3.99415 2.51038 4.44798
59 0.0146583 5.20123 2.74187
19 2.27147 4.19885 4.98998
21 0.00543263 4.00884 5.34992
71 0.994397 4.66508 2.53684
54 1.99416 4.88259 4.30271
107 1.72295 3.04432 4.68947
24 1.16739 3.38549 3.95206
103 0.721465 4.91904 3.76502
2 -0.151426 4.82015 4.59472
22 1.2391 4.16367 4.70271
73 1.69502 4.65372 3.2776
98 0.916065 3.29172 5.31873
74 1.69594 3.6431 3.00124
29 2.13589 3.91493 3.93378
92 0.712769 3.88367 3.15322
116 0.311569 2.95475 3.50729
10 4.78759 3.05749 5.03209
66 4.37466 5.52618 5.53739
70 4.31767 5.06039 3.00318
100 3.65036 3.62803 5.37134
17 4.17802 4.94259 4.49324
99 2.45867 2.98318 3.48496
55 3.17221 5.08829 2.55292
108 3.1639 4.7398 4.34118
102 5.53837 3.56878 4.44213
79 2.75937 4.45629 3.32467
119 2.75757 3.21546 4.65802
6 4.43315 4.51596 5.35486
123 3.69202 2.6194 5.40569
69 3.77992 4.2508 3.54665
121 3.96974 3.53347 4.39343
95 4.29304 3.37489 3.40626
125 4.98672 4.31348 3.60677
ITEM: TIMESTEP
400
ITEM: NUMBER OF ATOMS
125
ITEM: BOX BOUNDS pp pp pp
0.0000000000000000e+00 5.3860867250797098e+00
0.0000000000000000e+00 5.3860867250797098e+00
0.0000000000000000e+00 5.3860867250797098e+00
ITEM: ATOMS id x y z
7 0.449404 1.36182 1.03154
28 2.65962 2.28503 -0.343343
52 0.0913744 0.700555 2.20422
56 0.930007 1.68645 2.09373
58 1.48452 1.40958 1.03217
88 1.1965 0.603202 1.88331
53 0.70137 0.0444114 1.07437
61 2.10993 2.20684 1.6694
37 1.89411 0.290196 0.89027
31 0.992295 2.43471 1.42375
63 2.04416 1.30345 2.1609
90 0.185242 2.59869 2.26719
23 2.4144 0.12697 1.85427
46 4.61815 1.96341 -0.468207
83 3.22702 1.58356 3.11636
32 4.17062 1.99717 0.722242
26 4.34734 0.230943 2.12221
15 4.8436 2.37831 1.36356
35 4.77633 1.57104 2.26487
39 2.52642 1.16349 1.14141
1 4.72347 0.951109 1.14055
13 3.16086 1.82892 0.803354
49 3.60971 0.649117 1.08626
25 4.15517 1.10333 0.00266244
60 3.82317 1.97425 1.75855
110 5.45053 0.48999 0.336851
30 4.47022 -0.138806 1.11264
64 2.99921 2.67805 1.51548
48 3.07362 1.027 2.00017
5 2.49682 0.799328 0.0934006
42 2.65705 2.9426 0.49809
12 0.826045 4.81515 0.0921651
27 2.85578 4.95925 0.910441
41 0.606097 3.81328 0.779022
43 2.11172 4.19989 1.30433
47 1.80261 3.72906 0.376996
67 2.3596 3.1332 2.40008
72 1.43533 4.91013 1.53929
18 1.98815 3.1875 1.26438
38 2.59401 4.53946 2.11917
115 1.41627 3.91308 1.96052
76 0.399599 3.99685 1.78515
9 1.8396 4.68874 0.36753
36 0.173156 2.59513 0.382979
97 1.27233 2.78668 2.4339
3 5.27865 4.61403 0.862757
65 4.14299 2.8391 2.36006
91 5.04626 4.7824 1.85462
20 3.6172 5.08335 1.68158
45 3.75447 3.24982 0.842321
40 5.53545 3.17531 1.38896
44 4.76678 3.78171 1.69695
50 3.83586 4.32928 1.0259
75 3.12838 3.72096 1.72993
16 2.89696 3.949 0.634792
105 3.53203 4.75371 0.178251
124 4.77683 3.37072 0.616744
93 4.07422 4.40527 2.29392
96 5.13237 3.94313 2.77331
94 3.2988 3.57286 2.90003
14 2.67577 -0.308541 5.16731
8 1.02865 0.957507 5.57504
68 2.20805 2.15183 2.78982
81 0.521749 0.665259 3.19125
78 1.3925 1.09714 2.98228
62 0.845069 2.06964 3.21533
11 1.0104 1.40792 4.06081
57 1.58837 0.281463 3.80012
82 0.637609 0.307825 4.41166
86 2.23096 1.20823 3.79099
111 1.73109 2.23183 3.86144
122 1.32465 2.14051 5.37016
114 1.80654 1.30133 4.73204
4 2.57426 0.397204 4.40681
117 0.365226 2.34675 4.56933
87 1.65535 0.134908 5.08918
77 1.63604 0.219026 2.67663
104 2.54197 0.365522 3.23719
113 5.08659 0.877834 4.77404
33 3.2277 1.32229 4.96656
51 4.17833 0.765941 3.05062
85 5.33783 1.38633 3.718
80 5.04065 -0.010069 3.81411
34 3.53222 0.33403 4.85788
120 3.51139 2.56648 3.44514
106 4.75282 2.4943 3.0956
118 2.88095 2.00512 3.92233
89 3.38348 1.02559 3.9409
101 4.3091 1.69435 3.70672
84 3.48647 -0.0599941 3.60314
109 4.30088 0.670064 4.17069
112 4.01765 2.61878 4.38925
59 -0.0355372 5.11322 2.79517
19 2.29085 4.13143 4.98246
21 -0.0901711 3.92713 5.37093
71 0.912325 4.9766 2.61358
54 1.95624 4.91493 4.38823
107 1.79973 3.15075 4.76379
24 1.18835 3.33305 3.8579
103 0.482358 4.74559 3.68832
2 -0.225338 4.76261 4.63229
22 1.13288 4.12513 4.57775
73 1.70492 4.75227 3.36108
98 0.915973 3.24003 5.29007
74 1.84015 3.61339 3.07873
29 2.27026 3.987 4.0105
92 0.82271 3.84453 2.97981
116 0.237339 2.98719 3.46096
10 4.78594 3.13188 4.92766
66 4.51472 5.56366 5.27521
70 4.36884 5.01106 3.03814
100 3.69843 3.7492 5.34148
17 4.14236 4.83513 4.3708
99 2.36452 2.97521 3.67621
55 3.21787 5.32254 2.58694
108 3.05733 4.67118 4.35818
102 5.6389 3.59304 4.41934
79 2.8135 4.59669 3.26525
119 2.83625 3.21991 4.70765
6 4.4777 4.4537 5.55729
123 3.69065 2.52344 5.42959
69 3.81201 4.28345 3.5262
121 3.80203 3.68067 4.34532
95 4.2912 3.31797 3.46366
125 5.00809 4.26857 3.77838
ITEM: TIMESTEP
500
ITEM: NUMBER OF ATOMS
125
ITEM: BOX BOUNDS pp pp pp
0.0000000000000000e+00 5.3860867250797098e+00
0.0000000000000000e+00 5.3860867250797098e+00
0.0000000000000000e+00 5.3860867250797098e+00
ITEM: ATOMS id x y z
7 0.401751 1.48742 0.989799
28 2.53491 2.22646 -0.324599
52 0.0551186 0.762125 2.26336
56 0.858507 1.69634 2.10895
58 1.50772 1.60323 1.14341
88 1.13689 0.476745 1.79464
53 0.593745 -0.0509349 1.01177
61 2.06269 2.15881 1.73008
37 1.89089 0.250358 0.885743
31 1.0484 2.46408 1.31209
63 1.90687 1.13003 2.10412
90 0.115284 2.5697 2.34011
23 2.42495 0.182619 1.81347
46 4.6003 1.97107 -0.669615
83 3.33168 1.57843 2.84311
32 4.2956 1.88154 0.621462
26 4.39672 0.21847 2.25034
15 4.76767 2.32415 1.5709
35 4.78282 1.64634 2.3938
39 2.44426 1.16304 1.17794
1 4.72784 0.999436 1.08478
13 3.14728 1.941 0.84297
49 3.61894 0.664353 1.0705
25 4.08711 0.955479 -0.150536
60 3.81227 1.87808 1.92145
110 5.54005 0.325469 0.18513
30 4.4749 -0.0955638 1.06195
64 3.04645 2.6903 1.49608
48 2.94534 1.03202 2.18575
5 2.37339 0.909718 0.0740028
42 2.58499 2.99151 0.454151
12 0.767251 4.85092 0.101308
27 2.70051 5.10816 0.866783
41 0.796159 3.91581 0.654046
43 2.18154 4.18884 1.20535
47 1.68339 3.46971 0.411073
67 2.48346 3.02456 2.43514
72 1.46755 4.8669 1.52287
18 2.1216 3.1528 1.44912
38 2.69065 4.60812 2.25519
115 1.50875 3.83679 1.98636
76 0.521984 4.21016 1.7734
9 1.7424 4.6864 0.441746
36 0.245519 2.4511 0.50574
97 1.43064 2.74887 2.36223
3 5.38542 4.55541 0.968513
65 4.14388 2.87405 2.30935
91 4.96796 4.85248 1.89075
20 3.4026 5.09671 1.59727
45 3.83625 3.19079 0.828735
40 5.58815 3.03664 1.38292
44 4.85392 3.80655 1.73154
50 3.88443 4.25995 1.14483
75 3.00987 3.74417 1.7287
16 2.97335 3.95225 0.655007
105 3.57572 4.79837 0.131483
124 4.86693 3.16203 0.640345
93 4.10746 4.38443 2.22672
96 4.94559 3.89511 2.81981
94 3.34114 3.55355 2.88184
14 2.62562 -0.326233 5.22016
8 1.0931 0.935663 5.63616
68 2.09776 2.04663 2.79158
81 0.517583 0.590279 3.19468
78 1.40748 1.28936 3.05928
62 0.702398 2.15219 3.13154
11 0.989557 1.45125 4.04197
57 1.40465 0.510775 3.86286
82 0.627234 0.273909 4.50935
86 2.20518 1.24405 3.83346
111 1.65242 2.24468 3.97248
122 1.46062 2.19466 5.48352
114 1.74952 1.37339 4.80491
4 2.43489 0.389305 4.39429
117 0.365486 2.60389 4.47398
87 1.67935 0.251829 5.17635
77 1.8012 0.189452 2.6769
104 2.45754 0.359744 3.38775
113 5.28785 0.98565 4.80668
33 3.15393 1.34887 4.89418
51 4.2141 0.855047 3.03958
85 5.29203 1.38365 3.62311
80 5.01322 -0.0929634 4.04251
34 3.39772 0.243481 4.83591
120 3.46338 2.65571 3.26596
106 4.77112 2.37465 3.15165
118 2.89111 1.9422 3.98922
89 3.34019 1.00381 3.77551
101 4.27455 1.65642 3.6498
84 3.4683 0.0166 3.75472
109 4.30541 0.668102 4.10613
112 3.95138 2.70006 4.24297
59 -0.183583 5.09444 2.86961
19 2.42459 4.03135 5.09548
21 0.067677 3.87672 5.30007
71 0.93357 5.05203 2.5593
54 1.94052 4.8107 4.41842
107 1.91318 3.18653 4.80558
24 1.21228 3.22348 3.76574
103 0.465744 4.57903 3.59818
2 -0.113164 4.73049 4.92362
22 1.14208 4.18262 4.50759
73 1.71587 4.6832 3.38133
98 0.834842 3.18572 5.22399
74 1.94456 3.72678 3.10437
29 2.37361 3.96207 3.94829
92 0.859889 3.86443 2.78492
116 0.16396 3.05139 3.40196
10 4.73607 3.16265 4.82663
66 4.64123 5.4387 5.02295
70 4.30751 5.10883 3.13575
100 3.76895 3.7729 5.31669
17 4.10974 4.79049 4.32333
99 2.45873 2.9653 3.88006
55 3.39409 5.58158 2.60327
108 3.04252 4.56445 4.27234
102 5.6945 3.56661 4.28726
79 2.78574 4.69687 3.213
119 3.02466 3.30528 4.72462
6 4.59677 4.40687 5.73972
123 3.58864 2.52211 5.32218
69 3.77595 4.28832 3.40739
121 3.68181 3.84828 4.27159
95 4.36008 3.36202 3.48662
125 4.82563 4.0995 3.86326
ITEM: TIMESTEP
600
ITEM: NUMBER OF ATOMS
125
ITEM: BOX BOUNDS pp pp pp
0.0000000000000000e+00 5.3860867250797098e+00
0.0000000000000000e+00 5.3860867250797098e+00
0.0000000000000000e+00 5.3860867250797098e+00
ITEM: ATOMS id x y z
7 0.345045 1.48978 1.0424
28 2.39679 2.17225 5.03301
52 0.00931707 0.797332 2.25224
56 0.804711 1.65584 2.15071
58 1.37481 1.55084 1.11767
88 1.04446 0.433037 1.74873
53 0.613537 5.32095 1.03408
61 2.152 2.09661 1.8236
37 1.66983 0.389245 0.872626
31 1.18363 2.6401 1.18279
63 1.70726 1.05089 2.0922
90 0.037366 2.56351 2.39007
23 2.3946 0.188199 1.71227
46 4.62262 1.92563 4.56493
83 3.49005 1.70214 2.893
32 4.39366 1.80252 0.487772
26 4.43052 0.286378 2.21237
15 4.71031 2.30276 1.68319
35 4.79232 1.61707 2.50827
39 2.51664 1.07757 1.20351
1 4.75733 1.0106 1.06785
13 3.17794 1.97628 0.747116
49 3.60215 0.699842 1.05311
25 4.07883 0.926895 5.15173
60 3.82987 1.80099 1.88327
110 0.118805 0.248451 0.0657793
30 4.42465 5.33971 0.934346
64 3.17423 2.73617 1.58004
48 2.82881 0.99716 2.17648
5 2.34857 0.99434 0.205603
42 2.66192 2.91932 0.361181
12 0.849688 4.85511 0.100594
27 2.65179 5.12997 0.825672
41 0.986165 4.0224 0.652685
43 2.2207 4.19524 1.2347
47 1.68931 3.16378 0.480246
67 2.64577 2.87881 2.48094
72 1.49018 4.87543 1.55131
18 2.15117 3.11228 1.52751
38 2.70797 4.6498 2.22517
115 1.62012 3.79602 2.0223
76 0.664384 4.4334 1.83742
9 1.71403 4.70078 0.422428
36 0.355757 2.35989 0.488978
97 1.46893 2.77026 2.32367
3 5.39582 4.489 1.05019
65 4.13376 2.95727 2.29103
91 5.04672 4.86614 1.92396
20 3.36599 5.10883 1.56222
45 3.81089 3.09449 0.880481
40 0.212265 2.98655 1.41991
44 4.86848 3.74031 1.69266
50 3.96789 4.15084 1.26992
75 3.00175 3.75327 1.74394
16 3.19831 3.99247 0.59545
105 3.65462 4.90706 0.136848
124 4.92239 3.03327 0.597476
93 4.01964 4.36004 2.25322
96 4.82941 3.89957 2.78075
94 3.2884 3.60408 2.67838
14 2.4652 5.11208 5.2359
8 1.09876 1.00055 0.35771
68 2.15111 1.99614 2.86085
81 0.521096 0.445852 3.25598
78 1.31645 1.39002 3.13187
62 0.635961 2.18097 3.13807
11 0.802131 1.51737 4.03908
57 1.34727 0.598509 3.89094
82 0.619437 0.173737 4.60585
86 2.08172 1.34598 3.84534
111 1.61159 2.24025 4.09613
122 1.56579 2.2697 0.24119
114 1.66058 1.45523 4.84822
4 2.32165 0.425543 4.50909
117 0.344347 2.60678 4.3426
87 1.57886 0.208002 5.17146
77 1.90584 0.141198 2.61881
104 2.54243 0.324813 3.46509
113 5.42345 1.19375 4.73793
33 3.12302 1.37588 4.80164
51 4.25515 0.937049 3.03131
85 5.28063 1.3843 3.53545
80 5.10987 5.2 4.06627
34 3.36132 0.179052 4.79295
120 3.47803 2.61933 3.10622
106 4.80391 2.35705 3.2271
118 2.96354 2.02772 4.09064
89 3.21072 1.08447 3.64933
101 4.06311 1.69998 3.73976
84 3.41253 0.0849995 3.83635
109 4.33353 0.663149 4.116
112 3.76441 2.74807 4.12937
59 5.23959 5.11085 2.95334
19 2.47984 4.03331 5.26133
21 0.108584 3.68277 5.33543
71 0.96773 5.04066 2.5059
54 1.98641 4.80667 4.43443
107 1.95594 3.1276 4.77232
24 1.24285 3.13902 3.68928
103 0.506783 4.41983 3.53361
2 5.34744 4.68802 4.92841
22 1.11938 4.19154 4.4948
73 1.64234 4.71059 3.38722
98 0.909181 3.01215 5.14901
74 1.97623 3.73169 2.90608
29 2.37116 3.90149 3.99306
92 0.816473 3.87203 2.71137
116 0.0924093 3.16682 3.28254
10 4.69821 3.2119 4.73335
66 4.5434 0.0814333 4.97117
70 4.1859 5.30933 3.30838
100 3.9148 3.7035 5.29863
17 4.09069 4.8159 4.37901
99 2.58263 2.86776 3.96082
55 3.46262 0.37947 2.76134
108 3.0522 4.70374 4.35377
102 0.280814 3.72998 4.17803
79 2.77325 4.76301 3.33258
119 3.04772 3.20543 4.79984
6 4.59648 4.33896 0.366668
123 3.52801 2.471 5.23955
69 3.74618 4.37367 3.21907
121 3.83785 3.78352 4.20108
95 4.29387 3.22166 3.3853
125 4.76209 4.14186 4.08635
ITEM: TIMESTEP
700
ITEM: NUMBER OF ATOMS
125
ITEM: BOX BOUNDS pp pp pp
0.0000000000000000e+00 5.3860867250797098e+00
0.0000000000000000e+00 5.3860867250797098e+00
0.0000000000000000e+00 5.3860867250797098e+00
ITEM: ATOMS id x y z
7 0.288897 1.33952 1.22627
28 2.39453 2.12723 4.93216
52 0.0340216 0.7679 2.23186
56 0.72062 1.64234 2.16847
58 1.41857 1.50576 1.24855
88 0.876483 0.46525 1.85289
53 0.569301 5.27182 0.907417
61 2.29869 1.92769 1.81304
37 1.54348 0.42817 0.943116
31 1.26448 2.71149 1.26558
63 1.71913 1.1801 2.16043
90 -0.0348304 2.6034 2.40185
23 2.33058 0.174052 1.66784
46 4.69385 1.93903 4.50686
83 3.55931 1.62256 2.80614
32 4.45366 1.82383 0.314376
26 4.40861 0.368 2.11543
15 4.69991 2.32069 1.59617
35 4.85593 1.6524 2.46473
39 2.57245 1.10265 1.23348
1 4.74459 0.928729 1.11757
13 3.18894 1.93721 0.699252
49 3.5704 0.756536 1.03256
25 4.05386 1.10022 5.14635
60 3.81967 1.70023 1.66942
110 -0.010251 0.308257 0.161476
30 4.39155 5.34092 0.819496
64 3.30659 2.6504 1.7188
48 2.75209 1.11397 2.28409
5 2.32289 1.06273 0.201649
42 2.86371 2.86437 0.359729
12 0.774751 4.84319 -0.00743516
27 2.7194 5.12472 0.812122
41 1.03212 4.07283 0.802261
43 2.29625 4.15798 1.19112
47 1.88759 3.3177 0.470833
67 2.63887 2.73709 2.48813
72 1.60731 4.91418 1.52829
18 2.2649 3.01829 1.42988
38 2.64533 4.66516 2.2356
115 1.55558 3.92824 1.87816
76 0.662781 4.4046 1.80356
9 1.85766 4.68391 0.469156
36 0.492132 2.37756 0.352629
97 1.43843 2.79888 2.34783
3 5.38965 4.30208 0.953746
65 4.12333 3.08516 2.25672
91 5.09533 4.84538 1.97382
20 3.53999 5.12172 1.59568
45 3.84667 3.02288 0.836956
40 0.219986 2.99543 1.46582
44 4.88673 3.66267 1.67389
50 4.08887 4.06498 1.27878
75 3.08913 3.78372 1.57208
16 3.31762 4.03909 0.619985
105 3.73572 4.93063 0.207726
124 4.84348 2.92421 0.541712
93 3.93941 4.41461 2.23189
96 4.78136 3.99258 2.73105
94 3.30927 3.69637 2.65611
14 2.52124 5.19301 5.2165
8 0.895043 1.10222 0.234362
68 2.30583 1.9369 3.02975
81 0.555663 0.395079 3.33368
78 1.11882 1.29042 3.13099
62 0.596242 2.25229 3.24982
11 0.708382 1.65959 4.04312
57 1.39951 0.549573 3.9612
82 0.653043 0.0393152 4.50618
86 2.10209 1.42227 3.86991
111 1.59265 2.30274 4.24008
122 1.5642 1.99203 0.349796
114 1.4968 1.42959 4.86173
4 2.27631 0.642572 4.56174
117 0.272933 2.53103 4.13723
87 1.42522 0.230887 5.16206
77 1.9871 0.0490552 2.61485
104 2.32278 0.458266 3.44942
113 5.45126 1.31139 4.77524
33 3.08577 1.22127 4.87779
51 4.32513 0.998709 3.16302
85 5.20792 1.35568 3.42986
80 5.24701 5.15113 3.94692
34 3.35334 0.30679 4.96529
120 3.46299 2.72271 3.08031
106 4.8259 2.31438 3.42596
118 2.97185 1.96939 4.07936
89 3.04646 1.11723 3.62412
101 3.93262 1.78018 3.87625
84 3.3731 0.198212 3.85997
109 4.33805 0.713723 4.12425
112 3.63585 2.74083 4.17479
59 5.25855 5.04345 2.95078
19 2.42795 4.02303 5.32707
21 0.0571557 3.60426 5.4075
71 0.976642 5.13815 2.67197
54 1.94489 4.84179 4.31884
107 1.96961 3.12003 4.75622
24 1.23351 3.13536 3.58646
103 0.564066 4.47665 3.43864
2 5.28061 4.60208 4.88692
22 1.13292 4.20158 4.55697
73 1.55656 4.7524 3.39216
98 1.10355 2.75889 5.04884
74 2.12794 3.67966 2.92811
29 2.32467 3.90792 4.05687
92 0.784398 3.777 2.66606
116 0.0535043 3.31008 3.19024
10 4.71244 3.20028 4.57187
66 4.52193 0.0464222 5.10697
70 4.43394 5.3805 3.36567
100 4.00677 3.55361 5.22527
17 3.94935 4.86726 4.38268