
### SPECIFY THE NUMBER OF PRODUCTION STEPS ###
variable Nprod equal 30000

### ASSIGN ATOMIC VELOCITIES ###
velocity all create ${T} 12345 dist gaussian rot yes mom yes
velocity all create 1.5 12345 dist gaussian rot yes mom yes

### SPECIFY ENSEMBLE ###
timestep ${timestep}
timestep 0.001
fix 1 all npt temp ${T} ${T} 0.1 iso ${p} ${p} 1.0
fix 1 all npt temp 1.5 ${T} 0.1 iso ${p} ${p} 1.0
fix 1 all npt temp 1.5 1.5 0.1 iso ${p} ${p} 1.0
fix 1 all npt temp 1.5 1.5 0.1 iso 1 ${p} 1.0
fix 1 all npt temp 1.5 1.5 0.1 iso 1 1 1.0

### THERMODYNAMIC OUTPUT CONTROL ###
thermo_style custom time pe ke etotal temp press
thermo 1

### RECORD TRAJECTORY ###
dump traj all custom 1000 traj.dump id x y z

### SPECIFY TIMESTEP ###
variable n_steps equal floor(50/${timestep})
variable n_steps equal floor(50/0.001)
timestep ${timestep}
timestep 0.001

### RUN SIMULATION TO MELT CRYSTAL ###
run ${n_steps}
run 50000
Last active /omp style is pair_style lj/cut/omp
Neighbor list info ...
  update every 1 steps, delay 10 steps, check yes
  max neighbors/atom: 2000, page size: 100000
  master list distance cutoff = 4.5
  ghost atom cutoff = 4.5
  binsize = 2.25, bins = 3 3 3
  1 neighbor lists, perpetual/occasional/extra = 1 0 0
  (1) pair lj/cut/omp, perpetual
      attributes: half, newton on, omp
      pair build: half/bin/atomonly/newton/omp
      stencil: half/bin/3d/newton
      bin: standard
Per MPI rank memory allocation (min/avg/max) = 10.63 | 10.63 | 10.63 Mbytes
Time PotEng KinEng TotEng Temp Press 
           0   -5.2647711        2.232   -3.0327711          1.5   0.89516323 
       0.001   -5.2642602    2.2314889   -3.0327713    1.4996565   0.89708859 
       0.002   -5.2627247    2.2299534   -3.0327712    1.4986246   0.90287343 
       0.003     -5.26016    2.2273896   -3.0327705    1.4969016   0.91252977 
       0.004   -5.2565616    2.2237931   -3.0327686    1.4944846   0.92606873 
       0.005   -5.2519245    2.2191597   -3.0327649    1.4913707   0.94350037 
       0.006   -5.2462438    2.2134853   -3.0327585    1.4875573   0.96483354 
       0.007   -5.2395142    2.2067658   -3.0327483    1.4830415   0.99007555 
       0.008   -5.2317306    2.1989974   -3.0327332    1.4778209    1.0192319 
       0.009   -5.2228883    2.1901766   -3.0327117    1.4718929    1.0523059 
        0.01   -5.2129824    2.1803003   -3.0326821    1.4652556    1.0892983 
       0.011   -5.2020088    2.1693659   -3.0326429    1.4579072    1.1302067 
       0.012   -5.1899638    2.1573717   -3.0325922    1.4498466    1.1750249 
       0.013   -5.1768447    2.1443169   -3.0325278    1.4410732    1.2237426 
       0.014   -5.1626496    2.1302017   -3.0324479    1.4315872    1.2763443 
       0.015   -5.1473782     2.115028   -3.0323502    1.4213898    1.3328086 
       0.016   -5.1310314     2.098799   -3.0322324    1.4104832    1.3931078 
       0.017   -5.1136123    2.0815201   -3.0320922     1.398871    1.4572062 
       0.018   -5.0949958    2.0631994   -3.0317963    1.3865588    1.5252677 
       0.019   -5.0754517    2.0438472   -3.0316045    1.3735532    1.5968209 
        0.02   -5.0544689    2.0234777   -3.0309912     1.359864    1.6726332 
       0.021   -5.0323253    2.0021098   -3.0302155    1.3455039    1.7522089 
       0.022   -5.0091692    1.9797639   -3.0294053    1.3304865    1.8352502 
       0.023   -4.9852847    1.9564626   -3.0288221     1.314827    1.9212341 
       0.024   -4.9599137    1.9322356   -3.0276781    1.2985454    2.0112912 
       0.025   -4.9341334    1.9071164    -3.027017    1.2816643    2.1036179 
       0.026   -4.9066753    1.8811449   -3.0255304    1.2642103    2.2001391 
       0.027   -4.8788931     1.854367    -3.024526    1.2462144    2.2985917 
       0.028   -4.8499183    1.8268331   -3.0230852    1.2277104    2.4002412 
       0.029   -4.8205933    1.7986021   -3.0219912     1.208738    2.5036178 
        0.03   -4.7903296    1.7697392   -3.0205904    1.1893408    2.6095192 
       0.031   -4.7592008    1.7403167    -3.018884    1.1695677     2.717677 
       0.032   -4.7278048    1.7104131   -3.0173917    1.1494712    2.8269747 
       0.033   -4.6958386    1.6801156    -3.015723    1.1291099    2.9377206 
       0.034   -4.6633983    1.6495189   -3.0138794    1.1085477    3.0495757 
       0.035   -4.6305852    1.6187254   -3.0118598    1.0878531    3.1621822 
       0.036   -4.5984254    1.5878433    -3.010582     1.067099    3.2736988 
       0.037   -4.5655977    1.5569878   -3.0086099    1.0463628    3.3860137 
       0.038   -4.5323591    1.5262824   -3.0060767    1.0257274    3.4984956 
       0.039   -4.5000094    1.4958504    -3.004159    1.0052758    3.6088428 
        0.04   -4.4682893    1.4658204   -3.0024689   0.98509432    3.7172332 
       0.041   -4.4373325    1.4363263   -3.0010063   0.96527302    3.8232175 
       0.042   -4.4066222    1.4075003   -2.9991219   0.94590075    3.9273802 
       0.043   -4.3761644    1.3794761   -2.9966883   0.92706724    4.0294759 
       0.044   -4.3475257    1.3523841   -2.9951415   0.90886029    4.1267792 
       0.045    -4.319403    1.3263529   -2.9930501   0.89136618    4.2211403 
       0.046   -4.2923122    1.3015062   -2.9908061   0.87466813    4.3115243 
       0.047   -4.2667624     1.277959   -2.9888034    0.8588434    4.3969187 
       0.048   -4.2431225    1.2558164    -2.987306   0.84396266    4.4765484 
       0.049   -4.2207056    1.2351754   -2.9855302   0.83009099    4.5513356 
        0.05   -4.1998635    1.2161259   -2.9837376   0.81728892     4.620572 
       0.051   -4.1813232    1.1987413    -2.982582   0.80560568    4.6829722 
       0.052   -4.1640988    1.1830806   -2.9810182   0.79508107    4.7399958 
       0.053   -4.1484972    1.1691908   -2.9793064   0.78574648    4.7910708 
       0.054   -4.1349397    1.1571032   -2.9778366    0.7776231    4.8354672 
       0.055   -4.1233149    1.1468391   -2.9764757   0.77072522    4.8733284 
       0.056   -4.1133661    1.1384051    -2.974961   0.76505721    4.9050516 
       0.057   -4.1048181    1.1317905   -2.9730276   0.76061188    4.9310848 
       0.058   -4.0981682    1.1269728   -2.9711954   0.75737417    4.9506723 
       0.059   -4.0938965    1.1239147   -2.9699817   0.75531904    4.9631059 
        0.06   -4.0907762    1.1225679   -2.9682083   0.75441394    4.9704063 
       0.061   -4.0895294    1.1228761   -2.9666533   0.75462103      4.97152 
       0.062   -4.0891741    1.1247742   -2.9643998   0.75589667    4.9681125 
       0.063   -4.0906799     1.128191   -2.9624889   0.75819289    4.9587688 
       0.064    -4.093437    1.1330446   -2.9603923   0.76145473    4.9445886 
       0.065   -4.0978784    1.1392481   -2.9586303   0.76562372    4.9250282 
       0.066   -4.1031266    1.1467117   -2.9564148   0.77063961    4.9016293 
       0.067    -4.109607    1.1553413   -2.9542657   0.77643903    4.8738739 
       0.068   -4.1174818    1.1650407    -2.952441   0.78295748     4.841666 
       0.069    -4.124957    1.1757136   -2.9492434   0.79013009    4.8080082 
        0.07   -4.1346743    1.1872622   -2.9474121   0.79789128    4.7688834 
       0.071   -4.1443185    1.1995898   -2.9447287   0.80617594    4.7281177 
       0.072   -4.1540552    1.2126009   -2.9414543   0.81491995    4.6856098 
       0.073    -4.164836    1.2262014   -2.9386346   0.82406007    4.6400132 
       0.074   -4.1759182    1.2402992    -2.935619   0.83353442    4.5926557 
       0.075   -4.1878696    1.2548067   -2.9330629   0.84328409    4.5427906 
       0.076   -4.1998264    1.2696388   -2.9301876   0.85325187    4.4919262 
       0.077   -4.2122319    1.2847135   -2.9275184   0.86338273    4.4394999 
       0.078   -4.2243635    1.2999535     -2.92441   0.87362464    4.3867828 
       0.079   -4.2369347    1.3152838   -2.9216509   0.88392728    4.3327723 
        0.08   -4.2497522    1.3306355   -2.9191167   0.89424428    4.2778901 
       0.081   -4.2623666    1.3459444   -2.9164222    0.9045325    4.2229527 
       0.082    -4.274335    1.3611517   -2.9131833   0.91475247    4.1687576 
       0.083   -4.2858729    1.3762038   -2.9096692   0.92486813    4.1150573 
       0.084   -4.2974604    1.3910508   -2.9064096   0.93484598    4.0611801 
       0.085   -4.3090608     1.405649   -2.9034117    0.9446566    4.0072604 
       0.086     -4.31973    1.4199609   -2.8997691   0.95427482    3.9548501 
       0.087   -4.3306152    1.4339517   -2.8966635   0.96367724    3.9022062 
       0.088   -4.3413004    1.4475899   -2.8937105    0.9728427    3.8500333 
       0.089    -4.351249    1.4608535   -2.8903955   0.98175638    3.7992186 
        0.09   -4.3613602    1.4737237   -2.8876365   0.99040571    3.7483889 
       0.091   -4.3708427    1.4861866   -2.8846561   0.99878133    3.6988157 
       0.092   -4.3799551    1.4982341    -2.881721    1.0068778    3.6501183 
       0.093   -4.3890863    1.5098605   -2.8792258    1.0146912    3.6017058 
       0.094   -4.3971958    1.5210655   -2.8761303    1.0222214    3.5552199 
       0.095   -4.4052029    1.5318516   -2.8733513    1.0294701     3.509229 
       0.096    -4.413246    1.5422249   -2.8710211    1.0364414     3.463521 
       0.097   -4.4205531     1.552195   -2.8683581    1.0431418    3.4193019 
       0.098   -4.4277906    1.5617751   -2.8660155      1.04958    3.3755276 
       0.099   -4.4344501    1.5709785   -2.8634716    1.0557651    3.3329846 
         0.1   -4.4405467    1.5798203   -2.8607264    1.0617072    3.2916392 
       0.101   -4.4464888    1.5883176   -2.8581712    1.0674177    3.2508433 
       0.102   -4.4515092    1.5964882   -2.8550209    1.0729088    3.2117792 
       0.103    -4.456669    1.6043511   -2.8523179     1.078193    3.1727802 
       0.104   -4.4619851    1.6119242   -2.8500609    1.0832824    3.1338063 
       0.105   -4.4672114    1.6192265   -2.8479849    1.0881898    3.0952259 
       0.106   -4.4726267    1.6262779   -2.8463488    1.0929287    3.0565918 
       0.107    -4.475898    1.6330991   -2.8427989    1.0975128     3.021512 
       0.108   -4.4797856    1.6397088   -2.8400768    1.1019548    2.9856839 
       0.109   -4.4841698    1.6461234   -2.8380465    1.1062657    2.9492792 
        0.11   -4.4881498    1.6523596   -2.8357902    1.1104567    2.9136804 
       0.111   -4.4923918    1.6584341   -2.8339577    1.1145391    2.8778403 
       0.112   -4.4963867    1.6643646   -2.8320221    1.1185246    2.8425339 
       0.113   -4.4997573    1.6701688   -2.8295885    1.1224253    2.8083312 
       0.114   -4.5038236    1.6758643   -2.8279593    1.1262529    2.7731781 
       0.115   -4.5072896     1.681465   -2.8258246    1.1300168    2.7390641 
       0.116   -4.5116019    1.6869849   -2.8246171    1.1337264    2.7037418 
       0.117   -4.5150743    1.6924386   -2.8226357    1.1373915    2.6698019 
       0.118    -4.518631    1.6978403   -2.8207907    1.1410217    2.6358053 
       0.119    -4.522283    1.7032042   -2.8190789    1.1446265    2.6017236 
        0.12   -4.5253876    1.7085433   -2.8168443    1.1482146    2.5685349 
       0.121   -4.5292593    1.7138698   -2.8153895    1.1517942    2.5342044 
       0.122   -4.5326001    1.7191953   -2.8134048    1.1553732    2.5007186 
       0.123   -4.5356808    1.7245315   -2.8111493    1.1589594    2.4676503 
       0.124   -4.5392917    1.7298897    -2.809402    1.1625603    2.4337764 
       0.125   -4.5426575    1.7352798   -2.8073777    1.1661827     2.400279 
       0.126   -4.5465662    1.7407106   -2.8058556    1.1698324    2.3659411 
       0.127   -4.5498506    1.7461913   -2.8036593    1.1735156    2.3325455 
       0.128   -4.5538215    1.7517304   -2.8020911    1.1772382    2.2980782 
       0.129   -4.5571781    1.7573353   -2.7998428    1.1810049    2.2645259 
        0.13   -4.5604481    1.7630142   -2.7974338    1.1848214    2.2310766 
       0.131   -4.5641574    1.7687722   -2.7953852     1.188691    2.1969234 
       0.132   -4.5677842    1.7746117   -2.7931725    1.1926154    2.1628608 
       0.133   -4.5719824    1.7805376   -2.7914448    1.1965979    2.1278906 
       0.134   -4.5766251    1.7865558   -2.7900693    1.2006424    2.0922094 
       0.135     -4.58054     1.792669    -2.787871    1.2047507    2.0576051 
       0.136   -4.5847651    1.7988753   -2.7858898    1.2089216    2.0224957 
       0.137    -4.587998    1.8051773   -2.7828208    1.2131568    1.9888661 
       0.138   -4.5911536    1.8115774   -2.7795762    1.2174579    1.9553279 
       0.139   -4.5951421    1.8180726   -2.7770695     1.221823    1.9205018 
        0.14   -4.5991752    1.8246606   -2.7745146    1.2262504    1.8855911 
       0.141   -4.6033812    1.8313408   -2.7720404    1.2307398     1.850408 
       0.142    -4.606975    1.8381117   -2.7688633    1.2352901    1.8161493 
       0.143   -4.6113884    1.8449706   -2.7664178    1.2398996    1.7806526 
       0.144   -4.6158333    1.8519148   -2.7639184    1.2445664    1.7451201 
       0.145   -4.6204379    1.8589408   -2.7614971    1.2492882     1.709366 
       0.146   -4.6254546     1.866043   -2.7594115    1.2540612    1.6730171 
       0.147    -4.629835    1.8732168   -2.7566182    1.2588823    1.6376649 
       0.148   -4.6346182    1.8804577   -2.7541604    1.2637485    1.6017489 
       0.149   -4.6395396    1.8877618   -2.7517778    1.2686571    1.5656777 
        0.15   -4.6442022    1.8951253   -2.7490769    1.2736057    1.5300589 
       0.151   -4.6484718    1.9025436   -2.7459282    1.2785912    1.4951021 
       0.152    -4.652997    1.9100124   -2.7429846    1.2836105    1.4598393 
       0.153   -4.6573799    1.9175267   -2.7398532    1.2886604    1.4248777 
       0.154   -4.6621394    1.9250822   -2.7370571    1.2937381    1.3894459 
       0.155   -4.6668804    1.9326759   -2.7342045    1.2988413    1.3541472 
       0.156   -4.6704261    1.9403038   -2.7301223    1.3039676    1.3207544 
       0.157   -4.6749895    1.9479605    -2.727029    1.3091132    1.2859553 
       0.158   -4.6796517    1.9556405   -2.7240112    1.3142745    1.2511364 
       0.159   -4.6833658    1.9633401   -2.7200257     1.319449    1.2178718 
        0.16   -4.6875645    1.9710553   -2.7165092    1.3246339    1.1840243 
       0.161   -4.6921133    1.9787821   -2.7133312    1.3298267    1.1498036 
       0.162   -4.6968789    1.9865171   -2.7103617     1.335025    1.1154173 
       0.163   -4.7009444    1.9942568   -2.7066876    1.3402264    1.0822405 
       0.164   -4.7049618    2.0019982   -2.7029636    1.3454289    1.0493063 
       0.165   -4.7090567    2.0097366   -2.6993201    1.3506294    1.0164331 
       0.166   -4.7128336    2.0174665    -2.695367    1.3558243   0.98421512 
       0.167    -4.717204    2.0251846   -2.6920194    1.3610112   0.95130116 
       0.168   -4.7211239    2.0328896   -2.6882344    1.3661892   0.91925125 
       0.169   -4.7251138    2.0405796   -2.6845342    1.3713573   0.88729692 
        0.17   -4.7285186    2.0482516    -2.680267    1.3765132   0.85641513 
       0.171   -4.7322514    2.0559013   -2.6763501    1.3816541   0.82525377 
       0.172   -4.7360474    2.0635245   -2.6725228    1.3867772   0.79421014 
       0.173   -4.7396435    2.0711188   -2.6685247    1.3918809   0.76367771 
       0.174   -4.7438231    2.0786822   -2.6651409    1.3969639   0.73250112 
       0.175   -4.7472796    2.0862138   -2.6610659    1.4020254    0.7026184 
       0.176    -4.750797    2.0937108   -2.6570862    1.4070637    0.6728725 
       0.177   -4.7541129    2.1011708   -2.6529421    1.4120771   0.64365435 
       0.178   -4.7576188    2.1085922   -2.6490266    1.4170646   0.61438995 
       0.179   -4.7606625    2.1159741   -2.6446884    1.4220256    0.5860458 
        0.18   -4.7636349    2.1233142   -2.6403207    1.4269585   0.55804878 
       0.181   -4.7665341    2.1306091    -2.635925     1.431861   0.53040555 
       0.182   -4.7696202    2.1378561   -2.6317641    1.4367313   0.50273813 
       0.183   -4.7722395    2.1450525    -2.627187    1.4415675   0.47601379 
       0.184    -4.775173    2.1521946   -2.6229784    1.4463674   0.44908965 
       0.185   -4.7777654    2.1592789   -2.6184865    1.4511283   0.42293537 
       0.186   -4.7806686    2.1663016    -2.614367    1.4558478   0.39660153 
       0.187   -4.7832244    2.1732577   -2.6099667    1.4605227   0.37106185 
       0.188   -4.7858239    2.1801427   -2.6056812    1.4651497   0.34575187 
       0.189   -4.7888526    2.1869504   -2.6019022    1.4697247   0.32011729 
        0.19   -4.7913908    2.1936726   -2.5977182    1.4742423   0.29551449 
       0.191   -4.7936922    2.2003003   -2.5933919    1.4786965   0.27158188 
       0.192   -4.7948387    2.2068263   -2.5880124    1.4830822   0.24967241 
       0.193   -4.7971732    2.2132429   -2.5839303    1.4873944    0.2263759 
       0.194   -4.7987293      2.21954   -2.5791893    1.4916264   0.20457739 
       0.195    -4.800283    2.2257087   -2.5745744    1.4957719   0.18315757 
       0.196   -4.8022185    2.2317389   -2.5704797    1.4998245   0.16157112 
       0.197   -4.8032216    2.2376205   -2.5656011    1.5037772   0.14174747 
       0.198   -4.8048496    2.2433438   -2.5615058    1.5076235   0.12143329 
       0.199   -4.8060489    2.2488966   -2.5571523    1.5113552   0.10217668 
         0.2   -4.8074622    2.2542676   -2.5531945    1.5149648  0.083057164 
       0.201   -4.8079067    2.2594465   -2.5484602    1.5184453  0.065807691 
       0.202   -4.8089403    2.2644227   -2.5445176    1.5217894  0.048179257 
       0.203   -4.8097717    2.2691865   -2.5405852    1.5249909  0.031335101 
       0.204   -4.8098692    2.2737275   -2.5361417    1.5280427  0.016058523 
       0.205   -4.8098767    2.2780347    -2.531842    1.5309373 0.0014264771 
       0.206   -4.8096567    2.2820985   -2.5275582    1.5336683 -0.012350512 
       0.207   -4.8090716    2.2859103   -2.5231613      1.53623 -0.025063367 
       0.208   -4.8085073     2.289464   -2.5190433    1.5386183  -0.03725999 
       0.209   -4.8073074    2.2927531   -2.5145543    1.5408287 -0.047982815 
        0.21   -4.8066417    2.2957714   -2.5108703    1.5428571 -0.058914728 
       0.211   -4.8053313    2.2985136   -2.5068177       1.5447  -0.06834608 
       0.212    -4.803764    2.3009733   -2.5027907    1.5463531 -0.076833223 
       0.213   -4.8015452    2.3031467   -2.4983986    1.5478136 -0.083803356 
       0.214   -4.7990656    2.3050319   -2.4940337    1.5490806 -0.089817146 
       0.215   -4.7965855    2.3066263   -2.4899592    1.5501521 -0.095248676 
       0.216   -4.7938421    2.3079267   -2.4859154     1.551026 -0.099719787 
       0.217   -4.7903136    2.3089331   -2.4813805    1.5517024  -0.10248154 
       0.218   -4.7870463    2.3096462   -2.4774001    1.5521816   -0.1050415 
       0.219   -4.7836493    2.3100665   -2.4735828    1.5524641  -0.10684135 
        0.22   -4.7797337    2.3101951   -2.4695386    1.5525505  -0.10732902 
       0.221   -4.7759551    2.3100349   -2.4659202    1.5524428  -0.10745272 
       0.222   -4.7715382    2.3095923   -2.4619459    1.5521454  -0.10610749 
       0.223   -4.7672717    2.3088736   -2.4583981    1.5516623  -0.10443437 
       0.224   -4.7623805    2.3078847   -2.4544958    1.5509978  -0.10133378 
       0.225   -4.7570035    2.3066344   -2.4503691    1.5501575  -0.09701819 
       0.226   -4.7520617    2.3051302   -2.4469315    1.5491467 -0.092820904 
       0.227   -4.7463924    2.3033827   -2.4430097    1.5479722 -0.087093027 
       0.228   -4.7406574    2.3014031   -2.4392543    1.5466419 -0.080798678 
       0.229   -4.7350007    2.2992033   -2.4357974    1.5451635 -0.074161424 
        0.23   -4.7291719    2.2967954   -2.4323765    1.5435453 -0.066842672 
       0.231   -4.7230541    2.2941927   -2.4288614    1.5417962 -0.058696057 
       0.232   -4.7169233    2.2914105   -2.4255128    1.5399264 -0.050135479 
       0.233   -4.7101401     2.288463   -2.4216771    1.5379455 -0.040270747 
       0.234   -4.7036332    2.2853642    -2.418269     1.535863 -0.030448475 
       0.235   -4.6970253    2.2821294   -2.4148959    1.5336891 -0.020151765 
       0.236   -4.6903309    2.2787752   -2.4115557    1.5314349 -0.0094219233 
       0.237   -4.6836943    2.2753148   -2.4083795    1.5291094 0.0015138941 
       0.238   -4.6769967    2.2717614   -2.4052353    1.5267214  0.012804111 
       0.239   -4.6702546    2.2681313   -2.4021233    1.5242818  0.024407021 
        0.24   -4.6634791    2.2644388   -2.3990403    1.5218003  0.036289163 
       0.241   -4.6565513    2.2606939   -2.3958574    1.5192835  0.048601132 
       0.242   -4.6497398    2.2569074   -2.3928324    1.5167389  0.060945318 
       0.243   -4.6430572    2.2530904   -2.3899668    1.5141737  0.073290014 
       0.244   -4.6366411    2.2492521    -2.387389    1.5115942  0.085427363 
       0.245   -4.6298435    2.2453996   -2.3844439    1.5090051  0.098264365 
       0.246   -4.6233239      2.24154   -2.3817839    1.5064113   0.11085555 
       0.247   -4.6163045     2.237679   -2.3786255    1.5038165   0.12429397 
       0.248   -4.6095704    2.2338203   -2.3757501    1.5012233    0.1374586 
       0.249   -4.6031254    2.2299685   -2.3731569    1.4986347    0.1503379 
        0.25   -4.5965801     2.226127   -2.3704531    1.4960531   0.16347688 
       0.251   -4.5896745    2.2222984   -2.3673761    1.4934801   0.17723723 
       0.252   -4.5826722    2.2184852    -2.364187    1.4909175   0.19124052 
       0.253   -4.5760962    2.2146901   -2.3614061     1.488367   0.20474326 
       0.254   -4.5694268    2.2109162   -2.3585106    1.4858308    0.2184756 
       0.255   -4.5629266    2.2071659   -2.3557607    1.4833104   0.23206223 
       0.256   -4.5562061    2.2034426   -2.3527635    1.4808082    0.2460485 
       0.257   -4.5497907    2.1997505   -2.3500402     1.478327   0.25968889 
       0.258   -4.5434215    2.1960933   -2.3473282    1.4758692   0.27334401 
       0.259   -4.5369717    2.1924743   -2.3444974     1.473437   0.28718745 
        0.26   -4.5305721    2.1888964   -2.3416757    1.4710325   0.30102913 
       0.261   -4.5244873    2.1853627   -2.3391246    1.4686577   0.31449066 
       0.262   -4.5183279    2.1818772   -2.3364507    1.4663153   0.32811544 
       0.263   -4.5123591    2.1784442   -2.3339149    1.4640082   0.34152492 
       0.264   -4.5063212     2.175067   -2.3312541    1.4617386   0.35507944 
       0.265   -4.5000871    2.1717487   -2.3283384    1.4595086   0.36895214 
       0.266   -4.4939194    2.1684929   -2.3254265    1.4573205   0.38276951 
       0.267   -4.4883438    2.1653035   -2.3230403    1.4551771   0.39578937 
       0.268   -4.4823213     2.162185   -2.3201363    1.4530813    0.4094688 
       0.269   -4.4768953    2.1591399   -2.3177554    1.4510349   0.42233943 
        0.27   -4.4712812    2.1561675   -2.3151137    1.4490373   0.43549869 
       0.271   -4.4654795    2.1532681   -2.3122114    1.4470888   0.44894237 
       0.272   -4.4601443    2.1504441   -2.3097002    1.4451909   0.46175157 
       0.273   -4.4546238    2.1476976   -2.3069262    1.4433452   0.47483867 
       0.274   -4.4493097     2.145029   -2.3042807    1.4415518   0.48765258 
       0.275   -4.4442017    2.1424381   -2.3017636    1.4398106   0.50019196 
       0.276   -4.4390384    2.1399262   -2.2991122    1.4381225   0.51282176 
       0.277   -4.4335584    2.1374937   -2.2960647    1.4364877   0.52590631 
       0.278   -4.4285453    2.1351406   -2.2934047    1.4349063   0.53834804 
       0.279   -4.4238673    2.1328672   -2.2910002    1.4333785   0.55033104 
        0.28   -4.4190044    2.1306751   -2.2883293    1.4319053   0.56258384 
       0.281   -4.4142146    2.1285627   -2.2856519    1.4304857   0.57474541 
       0.282   -4.4097538    2.1265258    -2.283228    1.4291168   0.58645852 
       0.283   -4.4048374    2.1245625    -2.280275    1.4277973   0.59882143 
       0.284   -4.4002437    2.1226689   -2.2775748    1.4265248   0.61074979 
       0.285   -4.3951863    2.1208415   -2.2743448    1.4252967   0.62334569 
       0.286   -4.3904414    2.1190742   -2.2713671     1.424109   0.63553063 
       0.287   -4.3854783     2.117359   -2.2681193    1.4229563    0.6480505 
       0.288   -4.3810712    2.1156872    -2.265384    1.4218328   0.65983303 
       0.289   -4.3765579    2.1140485   -2.2625094    1.4207316   0.67180911 
        0.29   -4.3719277     2.112434   -2.2594937    1.4196465    0.6840033 
       0.291   -4.3671698    2.1108324   -2.2563375    1.4185701   0.69643972 
       0.292   -4.3626632    2.1092303   -2.2534329    1.4174935    0.7085999 
       0.293   -4.3586567    2.1076171   -2.2510396    1.4164094   0.72014868 
       0.294   -4.3538322    2.1059805   -2.2478517    1.4153095    0.7329303 
       0.295   -4.3494836    2.1043083   -2.2451753    1.4141857   0.74515361 
       0.296   -4.3446853    2.1025887   -2.2420966    1.4130301    0.7581145 
       0.297    -4.340078      2.10081    -2.239268    1.4118347   0.77092873 
       0.298   -4.3351315     2.098963   -2.2361685    1.4105934   0.78433916 
       0.299   -4.3299663    2.0970398   -2.2329265    1.4093009   0.79818204 
         0.3   -4.3249673    2.0950321   -2.2299352    1.4079517   0.81192344 
       0.301   -4.3196076    2.0929347   -2.2266729    1.4065422   0.82629397 
       0.302   -4.3141433    2.0907441   -2.2233992      1.40507   0.84093398 
       0.303   -4.3087046    2.0884588   -2.2202458    1.4035341   0.85565554 
       0.304    -4.303163     2.086081   -2.2170819    1.4019362   0.87062767 
       0.305   -4.2972614    2.0836147   -2.2136467    1.4002787   0.88619329 
       0.306   -4.2913983    2.0810672   -2.2103311    1.3985667   0.90178361 
       0.307   -4.2854531    2.0784481    -2.207005    1.3968065   0.91754605 
       0.308   -4.2793073    2.0757699   -2.2035374    1.3950066   0.93362196 
       0.309   -4.2737607    2.0730486   -2.2007122    1.3931778   0.94887765 
        0.31   -4.2677847    2.0703003   -2.1974844    1.3913308   0.96470806 
       0.311   -4.2615306    2.0675456    -2.193985    1.3894796   0.98087127 
       0.312   -4.2554121    2.0648077   -2.1906044    1.3876396    0.9967603 
       0.313   -4.2497146    2.0621109   -2.1876037    1.3858272    1.0119436 
       0.314   -4.2443351    2.0594825   -2.1848526    1.3840608    1.0265259 
       0.315   -4.2387778      2.05695   -2.1818278    1.3823589    1.0411525 
       0.316   -4.2333315    2.0545413   -2.1787903    1.3807401    1.0553827 
       0.317   -4.2277648    2.0522864   -2.1754784    1.3792247    1.0694953 
       0.318   -4.2223699    2.0502168   -2.1721531    1.3778338    1.0830462 
       0.319   -4.2170466    2.0483628   -2.1686838    1.3765879    1.0961343 
        0.32    -4.212343    2.0467527   -2.1655903    1.3755059    1.1079643 
       0.321   -4.2078959    2.0454143   -2.1624815    1.3746064     1.119002 
       0.322   -4.2034711    2.0443761    -2.159095    1.3739087    1.1295384 
       0.323   -4.1998751    2.0436615   -2.1562136    1.3734284    1.1384315 
       0.324   -4.1960827    2.0432905   -2.1527921    1.3731791    1.1470692 
       0.325   -4.1926335    2.0432814    -2.149352     1.373173    1.1546864 
       0.326   -4.1900642    2.0436489   -2.1464153      1.37342    1.1605275 
       0.327   -4.1877312    2.0444035   -2.1433277    1.3739271    1.1654689 
       0.328   -4.1853807    2.0455526   -2.1398282    1.3746993    1.1698547 
       0.329   -4.1832767    2.0471003   -2.1361764    1.3757394    1.1733222 
        0.33   -4.1820703    2.0490451   -2.1330252    1.3770464    1.1749808 
       0.331     -4.18071    2.0513799   -2.1293301    1.3786155    1.1762888 
       0.332   -4.1800967     2.054094   -2.1260027    1.3804395    1.1760228 
       0.333   -4.1793043    2.0571734   -2.1221309     1.382509    1.1754785 
       0.334   -4.1794894    2.0606006   -2.1188888    1.3848122    1.1730926 
       0.335   -4.1802385    2.0643544   -2.1158841    1.3873349    1.1694654 
       0.336   -4.1807436    2.0684103   -2.1123333    1.3900607    1.1657425 
       0.337   -4.1820251    2.0727421    -2.109283    1.3929718    1.1605618 
       0.338   -4.1832657    2.0773185   -2.1059472    1.3960474    1.1550874 
       0.339   -4.1846948    2.0821063   -2.1025886     1.399265    1.1490486 
        0.34   -4.1861508    2.0870726   -2.0990782    1.4026026    1.1427142 
       0.341   -4.1878582    2.0921817   -2.0956766    1.4060361     1.135824 
       0.342   -4.1896533    2.0973989   -2.0922544    1.4095423    1.1286523 
       0.343   -4.1911124    2.1026908   -2.0884216    1.4130987    1.1218304 
       0.344   -4.1925902    2.1080202     -2.08457    1.4166802    1.1149202 
       0.345   -4.1945731    2.1133501    -2.081223    1.4202621    1.1073023 
       0.346   -4.1962452    2.1186458   -2.0775994    1.4238211    1.1001415 
       0.347   -4.1974444    2.1238743     -2.07357    1.4273349    1.0937043 
       0.348   -4.1986631    2.1290054   -2.0696578    1.4307832    1.0873588 
       0.349   -4.1996133     2.134009   -2.0656043    1.4341458    1.0815387 
        0.35   -4.2007885    2.1388564   -2.0619321    1.4374035    1.0756044 
       0.351   -4.2011224    2.1435237   -2.0575987    1.4405401     1.071048 
       0.352   -4.2019002    2.1479887   -2.0539115    1.4435408    1.0661412 
       0.353   -4.2027108    2.1522298   -2.0504809     1.446391    1.0614714 
       0.354   -4.2026285    2.1562334   -2.0463951    1.4490816    1.0583277 
       0.355   -4.2024235    2.1599857   -2.0424378    1.4516033    1.0556753 
       0.356    -4.202346    2.1634735   -2.0388725    1.4539473    1.0531865 
       0.357   -4.2016066    2.1666888   -2.0349178    1.4561081    1.0519508 
       0.358   -4.2005911    2.1696252   -2.0309659    1.4580814    1.0514482 
       0.359   -4.1992982    2.1722785   -2.0270197    1.4598646     1.051684 
        0.36   -4.1977267     2.174647   -2.0230796    1.4614563    1.0526597 
       0.361   -4.1961412    2.1767328   -2.0194085     1.462858    1.0540117 
       0.362   -4.1942872     2.178541   -2.0157462    1.4640733    1.0560815 
       0.363   -4.1917809    2.1800778   -2.0117031    1.4651061    1.0593823 
       0.364   -4.1894155    2.1813515   -2.0080641     1.465962    1.0628189 
       0.365   -4.1865489     2.182373   -2.0041759    1.4666485    1.0672496 
       0.366   -4.1837186     2.183157   -2.0005616    1.4671754    1.0719213 
       0.367   -4.1800347    2.1837246     -1.99631    1.4675569    1.0780238 
       0.368   -4.1769535    2.1840973   -1.9928562    1.4678073    1.0835463 
       0.369   -4.1737138    2.1842958    -1.989418    1.4679407    1.0894928 
        0.37   -4.1699502    2.1843459   -1.9856043    1.4679744    1.0963248 
       0.371   -4.1659537    2.1842776   -1.9816761    1.4679285    1.1036075 
       0.372   -4.1621504    2.1841246   -1.9780259    1.4678257      1.11072 
       0.373   -4.1583155    2.1839229   -1.9743926    1.4676901    1.1179246 
       0.374   -4.1546186    2.1837117   -1.9709069    1.4675482    1.1249453 
       0.375   -4.1510984    2.1835305   -1.9675679    1.4674264    1.1316833 
       0.376   -4.1474002    2.1834164   -1.9639839    1.4673497    1.1385723 
       0.377   -4.1438265    2.1834095    -1.960417    1.4673451    1.1451555 
       0.378    -4.140413    2.1835482   -1.9568647    1.4674383    1.1513397 
       0.379   -4.1371963    2.1838688   -1.9533275    1.4676538    1.1570339 
        0.38   -4.1343426     2.184406   -1.9499366    1.4680148    1.1619757 
       0.381   -4.1316176    2.1851885   -1.9464292    1.4685406    1.1664496 
       0.382   -4.1289159    2.1862413   -1.9426745    1.4692482    1.1705711 
       0.383   -4.1267801    2.1875864   -1.9391937    1.4701521    1.1735832 
       0.384   -4.1249626    2.1892381   -1.9357245    1.4712621    1.1758068 
       0.385    -4.123736    2.1912063   -1.9325297    1.4725849    1.1768645 
       0.386   -4.1227098    2.1934958    -1.929214    1.4741235    1.1772847 
       0.387   -4.1218816    2.1961026    -1.925779    1.4758754    1.1770749 
       0.388   -4.1212423    2.1990197   -1.9222227    1.4778358    1.1762591 
       0.389    -4.121174    2.2022367   -1.9189372    1.4799978    1.1743393 
        0.39    -4.121529    2.2057368   -1.9157922      1.48235    1.1715397 
       0.391   -4.1218925    2.2094971   -1.9123954    1.4848771     1.168451 
       0.392   -4.1227614    2.2134923   -1.9092691    1.4875621    1.1644353 
       0.393   -4.1241076    2.2176962   -1.9064114    1.4903872    1.1595714 
       0.394   -4.1252477    2.2220756   -1.9031721    1.4933304    1.1548256 
       0.395   -4.1266651     2.226593    -1.900072    1.4963663    1.1495882 
       0.396   -4.1280634    2.2312114    -1.896852      1.49947    1.1443066 
       0.397   -4.1291438    2.2358936   -1.8932502    1.5026167     1.139433 
       0.398   -4.1306534    2.2406015   -1.8900519    1.5057806    1.1340056 
       0.399   -4.1322913    2.2452952   -1.8869962    1.5089349    1.1284769 
         0.4   -4.1340216    2.2499389   -1.8840827    1.5120557    1.1229409 
       0.401   -4.1352916    2.2544999   -1.8807917    1.5151209    1.1181857 
       0.402   -4.1364621    2.2589468   -1.8775153    1.5181094    1.1137621 
       0.403   -4.1375056    2.2632514   -1.8742542    1.5210023    1.1097402 
       0.404   -4.1381401    2.2673909   -1.8707492    1.5237842     1.106529 
       0.405   -4.1384783    2.2713473    -1.867131    1.5264431    1.1039993 
       0.406   -4.1388999    2.2751076   -1.8637923    1.5289701     1.101657 
       0.407   -4.1395289    2.2786638   -1.8608651    1.5313601    1.0993469 
       0.408   -4.1395793    2.2820112   -1.8575681    1.5336097    1.0981342 
       0.409   -4.1398331    2.2851488   -1.8546843    1.5357183    1.0969651 
        0.41   -4.1395123    2.2880808   -1.8514316    1.5376887    1.0968836 
       0.411   -4.1384949    2.2908158   -1.8476791    1.5395267     1.098046 
       0.412   -4.1371866    2.2933637   -1.8438229    1.5412391    1.0998932 
       0.413   -4.1365096    2.2957344   -1.8407752    1.5428322    1.1011687 
       0.414   -4.1354339     2.297941   -1.8374929    1.5443152    1.1032414 
       0.415   -4.1344985    2.3000004   -1.8344981    1.5456992    1.1053689 
       0.416   -4.1330675    2.3019283   -1.8311391    1.5469948    1.1083879 
       0.417   -4.1316752    2.3037371   -1.8279381    1.5482104     1.111559 
       0.418   -4.1305979    2.3054407   -1.8251572    1.5493553    1.1144924 
       0.419    -4.129197    2.3070537   -1.8221434    1.5504393     1.118028 
        0.42   -4.1278772    2.3085889   -1.8192883     1.551471     1.121605 
       0.421   -4.1265209    2.3100576   -1.8164632    1.5524581    1.1253642 
       0.422   -4.1253983    2.3114702   -1.8139281    1.5534074    1.1289275 
       0.423   -4.1245196    2.3128372   -1.8116823    1.5543261    1.1322673 
       0.424   -4.1233727    2.3141686   -1.8092041    1.5552208    1.1360577 
       0.425    -4.121706    2.3154718   -1.8062342    1.5560966    1.1406227 
       0.426    -4.120309    2.3167541   -1.8035549    1.5569584    1.1448907 
       0.427   -4.1189267    2.3180222   -1.8009045    1.5578106    1.1491919 
       0.428   -4.1178273    2.3192827   -1.7985447    1.5586577    1.1531552 
       0.429   -4.1164956    2.3205426   -1.7959529    1.5595045    1.1574606 
        0.43   -4.1154607     2.321809   -1.7936517    1.5603555    1.1613886 
       0.431   -4.1139447    2.3230873   -1.7908574    1.5612146    1.1659713 
       0.432   -4.1130005    2.3243849   -1.7886156    1.5620866    1.1697896 
       0.433   -4.1121101    2.3257082   -1.7864019     1.562976    1.1735291 
       0.434    -4.110496    2.3270617   -1.7834343    1.5638855    1.1782224 
       0.435   -4.1097275    2.3284477   -1.7812798     1.564817    1.1817615 
       0.436   -4.1092827    2.3298686   -1.7794141    1.5657719     1.184839 
       0.437   -4.1083816    2.3313259   -1.7770557    1.5667513    1.1884932 
       0.438   -4.1075458     2.332819   -1.7747268    1.5677547    1.1920221 
       0.439   -4.1065144    2.3343492   -1.7721652    1.5687831    1.1957728 
        0.44   -4.1055496     2.335917   -1.7696326    1.5698367     1.199394 
       0.441   -4.1050414    2.3375206   -1.7675208    1.5709144     1.202365 
       0.442   -4.1047257    2.3391564   -1.7655694    1.5720137    1.2050393 
       0.443    -4.103946    2.3408202   -1.7631258    1.5731318    1.2082952 
       0.444   -4.1032185    2.3425078   -1.7607106     1.574266     1.211445 
       0.445   -4.1028002     2.344214   -1.7585862    1.5754126    1.2141478 
       0.446   -4.1015156    2.3459371   -1.7555785    1.5765706     1.217976 
       0.447   -4.1013168    2.3476731   -1.7536437    1.5777373    1.2203269 
       0.448   -4.1014155    2.3494158   -1.7519997    1.5789085    1.2222535 
       0.449    -4.101288    2.3511641   -1.7501238    1.5800834    1.2244565 
        0.45   -4.1006721    2.3529158   -1.7477563    1.5812606    1.2272853 
       0.451   -4.1003481    2.3546692   -1.7456788     1.582439    1.2296992 
       0.452   -4.1005815    2.3564259   -1.7441556    1.5836196    1.2313443 
       0.453   -4.1001936    2.3581856    -1.742008    1.5848022    1.2337893 
       0.454   -4.1003607    2.3599464   -1.7404143    1.5859855    1.2354639 
       0.455   -4.1001683    2.3617091   -1.7384592    1.5871701    1.2375834 
       0.456   -4.1000108    2.3634757    -1.736535    1.5883573    1.2396208 
       0.457   -4.1002797    2.3652458   -1.7350338    1.5895469    1.2410533 
       0.458   -4.1003212    2.3670188   -1.7333024    1.5907384    1.2427504 
       0.459   -4.1003969     2.368794    -1.731603    1.5919314     1.244365 
        0.46   -4.1003727    2.3705679   -1.7298047    1.5931236    1.2460784 
       0.461   -4.1008973    2.3723362   -1.7285611     1.594312    1.2470331 
       0.462   -4.1010499     2.374092   -1.7269579    1.5954919    1.2484608 
       0.463   -4.1009536    2.3758278   -1.7251258    1.5966585    1.2502082 
       0.464   -4.1008583    2.3775323    -1.723326     1.597804    1.2519554 
       0.465    -4.101407     2.379193   -1.7222139    1.5989201     1.252863 
       0.466   -4.1016663    2.3807939   -1.7208724    1.5999959    1.2541866 
       0.467    -4.102012    2.3823164   -1.7196955    1.6010191    1.2554439 
       0.468    -4.102033    2.3837427   -1.7182903    1.6019776    1.2571986 
       0.469   -4.1021027    2.3850528   -1.7170499    1.6028581    1.2589724 
        0.47    -4.101554     2.386233    -1.715321    1.6036512    1.2616695 
       0.471   -4.1012876    2.3872689   -1.7140187    1.6043474    1.2641126 
       0.472   -4.1011548     2.388142   -1.7130128    1.6049341    1.2665122 
       0.473   -4.1007502    2.3888384   -1.7119118    1.6054021    1.2694176 
       0.474   -4.0998024    2.3893483   -1.7104541    1.6057449     1.273198 
       0.475   -4.0989601    2.3896661    -1.709294    1.6059584    1.2770008 
       0.476   -4.0986106    2.3897879   -1.7088227    1.6060402    1.2803161 
       0.477   -4.0973145    2.3897106   -1.7076038    1.6059883    1.2850493 
       0.478   -4.0963799    2.3894364   -1.7069435     1.605804    1.2894636 
       0.479   -4.0948977    2.3889704   -1.7059273    1.6054908    1.2947551 
        0.48    -4.093528    2.3883183   -1.7052097    1.6050526    1.3000385 
       0.481   -4.0917569    2.3874899    -1.704267    1.6044959    1.3059797 
       0.482   -4.0892103     2.386501   -1.7027093    1.6038313    1.3130584 
       0.483   -4.0874674    2.3853659   -1.7021015    1.6030685    1.3191678 
       0.484   -4.0853657    2.3840971   -1.7012687    1.6022158    1.3258237 
       0.485   -4.0827921     2.382711   -1.7000811    1.6012843    1.3331542 
       0.486   -4.0805445    2.3812245     -1.69932    1.6002853    1.3400822 
       0.487   -4.0782502    2.3796551   -1.6985951    1.5992306    1.3470778 
       0.488   -4.0760578    2.3780217   -1.6980361    1.5981328    1.3539236 
       0.489   -4.0734615    2.3763409   -1.6971206    1.5970033    1.3612654 
        0.49    -4.071128    2.3746268   -1.6965011    1.5958514    1.3682013 
       0.491   -4.0688098    2.3728937    -1.695916    1.5946866    1.3750382 
       0.492   -4.0665204    2.3711554   -1.6953649    1.5935184    1.3817402 
       0.493   -4.0642707    2.3694235   -1.6948472    1.5923545    1.3882763 
       0.494   -4.0622008    2.3677082   -1.6944926    1.5912017    1.3944471 
       0.495   -4.0601899    2.3660195   -1.6941704    1.5900669    1.4003999 
       0.496   -4.0579859    2.3643668   -1.6936191    1.5889562    1.4064574 
       0.497   -4.0562471    2.3627562   -1.6934909    1.5878738    1.4117441 
       0.498   -4.0541946    2.3611922   -1.6930024    1.5868227    1.4172798 
       0.499   -4.0526124    2.3596772   -1.6929352    1.5858046    1.4220274 
         0.5   -4.0508519    2.3582133   -1.6926386    1.5848208    1.4268383 
       0.501   -4.0491721    2.3568014   -1.6923707    1.5838719    1.4313703 
       0.502   -4.0473108    2.3554397    -1.691871    1.5829568    1.4359677 
       0.503   -4.0460484    2.3541264   -1.6919221    1.5820742    1.4396038 
       0.504   -4.0451224      2.35286   -1.6922624    1.5812231    1.4426258 
       0.505   -4.0434879    2.3516403   -1.6918476    1.5804034    1.4464094 
       0.506   -4.0423176    2.3504665   -1.6918511    1.5796146    1.4494139 
       0.507   -4.0409591    2.3493382    -1.691621    1.5788563    1.4524979 
       0.508   -4.0401952    2.3482555   -1.6919398    1.5781287    1.4546329 
       0.509   -4.0393749    2.3472204   -1.6921545    1.5774331    1.4566738 
        0.51   -4.0382412    2.3462378   -1.6920034    1.5767727    1.4589565 
       0.511   -4.0371902    2.3453125   -1.6918777    1.5761509    1.4609575 
       0.512   -4.0358388    2.3444514   -1.6913874    1.5755721    1.4631749 
       0.513   -4.0352363    2.3436623    -1.691574    1.5750418    1.4642253 
       0.514   -4.0346086    2.3429529   -1.6916557    1.5745651     1.465116 
       0.515   -4.0343569    2.3423344   -1.6920225    1.5741495     1.465312 
       0.516   -4.0341018    2.3418192   -1.6922826    1.5738032    1.4653013 
       0.517   -4.0337267    2.3414201   -1.6923066     1.573535    1.4652261 
       0.518   -4.0336344    2.3411494    -1.692485    1.5733531    1.4645482 
       0.519   -4.0333154    2.3410193    -1.692296    1.5732657    1.4639251 
        0.52   -4.0334332    2.3410419   -1.6923913    1.5732808    1.4624798 
       0.521   -4.0341288    2.3412276   -1.6929011    1.5734057    1.4600224 
       0.522    -4.035018     2.341583    -1.693435    1.5736445    1.4570526 
       0.523   -4.0359715    2.3421108   -1.6938607    1.5739992    1.4537396 
       0.524   -4.0368604    2.3428117   -1.6940487    1.5744702    1.4502568 
       0.525   -4.0382033    2.3436819   -1.6945214     1.575055    1.4459356 
       0.526   -4.0399925    2.3447136   -1.6952789    1.5757484    1.4408017 
       0.527   -4.0416893    2.3458914   -1.6957979    1.5765399    1.4355788 
       0.528   -4.0431445    2.3471957   -1.6959488    1.5774165    1.4304868 
       0.529   -4.0451182    2.3486036   -1.6965146    1.5783626    1.4245641 
        0.53    -4.046931    2.3500869   -1.6968441    1.5793595    1.4187339 
       0.531   -4.0488097    2.3516143   -1.6971954     1.580386    1.4127404 
       0.532   -4.0505912      2.35315   -1.6974412     1.581418    1.4068399 
       0.533   -4.0524945    2.3546521   -1.6978424    1.5824275    1.4007905 
       0.534   -4.0547384    2.3560778   -1.6986606    1.5833856    1.3943531 
       0.535   -4.0566291    2.3573879   -1.6992411    1.5842661    1.3884808 
       0.536   -4.0582615    2.3585429   -1.6997186    1.5850423    1.3830968 
       0.537   -4.0594605       2.3595   -1.6999605    1.5856855    1.3784724 
       0.538   -4.0607097    2.3602193   -1.7004904    1.5861689    1.3740178 
       0.539   -4.0618445    2.3606668   -1.7011777    1.5864696    1.3699855 
        0.54   -4.0629653    2.3608127   -1.7021526    1.5865677    1.3662785 
       0.541   -4.0637854    2.3606303   -1.7031551    1.5864451     1.363298 
       0.542    -4.064546    2.3600988   -1.7044472    1.5860879    1.3607523 
       0.543   -4.0641843    2.3592008   -1.7049835    1.5854844    1.3600395 
       0.544   -4.0636023     2.357924   -1.7056783    1.5846263    1.3599943 
       0.545   -4.0630579     2.356265   -1.7067929    1.5835114    1.3602851 
       0.546   -4.0620282    2.3542226   -1.7078056    1.5821389    1.3615874 
       0.547   -4.0607776    2.3518009   -1.7089768    1.5805113    1.3635467 
       0.548   -4.0591861    2.3490093   -1.7101768    1.5786353    1.3663022 
       0.549   -4.0568746    2.3458617   -1.7110129      1.57652     1.370323 
        0.55   -4.0542543    2.3423771   -1.7118772    1.5741781    1.3750471 
       0.551   -4.0513467     2.338578   -1.7127687     1.571625    1.3804135 
       0.552   -4.0481796    2.3344919   -1.7136877     1.568879    1.3863493 
       0.553   -4.0447819      2.33015    -1.714632     1.565961    1.3927766 
       0.554    -4.041449    2.3255857   -1.7158632    1.5628936    1.3992693 
       0.555   -4.0379515    2.3208325   -1.7171191    1.5596992    1.4060777 
       0.556   -4.0343238    2.3159245   -1.7183993    1.5564009    1.4131085 
       0.557   -4.0302102    2.3108989   -1.7193113    1.5530234    1.4207726 
       0.558   -4.0264328    2.3057958   -1.7206371    1.5495939    1.4279553 
       0.559   -4.0225099    2.3006557   -1.7218542    1.5461396    1.4352314 
        0.56   -4.0178249    2.2955177   -1.7223072    1.5426866    1.4433487 
       0.561   -4.0137209    2.2904182   -1.7233026    1.5392596    1.4505182 
       0.562     -4.00984    2.2853928   -1.7244473    1.5358822    1.4571542 
       0.563   -4.0067392    2.2804777   -1.7262615    1.5325791    1.4624902 
       0.564   -4.0032768    2.2757087   -1.7275681    1.5293741    1.4679583 
       0.565   -4.0002703    2.2711194   -1.7291509    1.5262899    1.4724592 
       0.566   -3.9970961    2.2667401   -1.7303559    1.5233469    1.4767584 
       0.567    -3.993912    2.2625998   -1.7313121    1.5205644    1.4806146 
       0.568   -3.9915289    2.2587264   -1.7328025    1.5179613    1.4829473 
       0.569   -3.9890562    2.2551441   -1.7339121    1.5155539    1.4848769 
        0.57   -3.9871683    2.2518753    -1.735293    1.5133571    1.4855071 
       0.571   -3.9856195    2.2489388   -1.7366807    1.5113836     1.485134 
       0.572    -3.984425    2.2463487   -1.7380763    1.5096429     1.483721 
       0.573   -3.9834631    2.2441145   -1.7393486    1.5081415    1.4814125 
       0.574   -3.9832611    2.2422428   -1.7410183    1.5068836    1.4775218 
       0.575   -3.9831698    2.2407371   -1.7424327    1.5058717    1.4728851 
       0.576   -3.9831869    2.2395966   -1.7435903    1.5051053    1.4675095 
       0.577   -3.9835674     2.238815   -1.7447524      1.50458    1.4610758 
       0.578   -3.9846912    2.2383816   -1.7463096    1.5042887    1.4531103 
       0.579   -3.9857596    2.2382822   -1.7474775    1.5042219    1.4446618 
        0.58   -3.9877972    2.2384965   -1.7493008    1.5043659    1.4344367 
       0.581   -3.9897377    2.2390039   -1.7507339    1.5047069    1.4238383 
       0.582   -3.9918187    2.2397794   -1.7520394    1.5052281    1.4125954 
       0.583   -3.9940066     2.240792   -1.7532146    1.5059086    1.4007882 
       0.584   -3.9969258    2.2420108    -1.754915    1.5067277    1.3876555 
       0.585   -3.9998891    2.2434036   -1.7564855    1.5076637    1.3741242 
       0.586   -4.0032534    2.2449351   -1.7583183    1.5086929    1.3597806 
       0.587   -4.0059391    2.2465695   -1.7593696    1.5097913    1.3460562 
       0.588   -4.0086969     2.248274   -1.7604229    1.5109368    1.3320335 
       0.589   -4.0118831    2.2500135   -1.7618697    1.5121058    1.3173004 
        0.59   -4.0152022    2.2517529   -1.7634493    1.5132748      1.30228 
       0.591   -4.0182308    2.2534616   -1.7647693    1.5144231    1.2875582 
       0.592   -4.0219848    2.2551102   -1.7668745    1.5155311    1.2718734 
       0.593   -4.0251317    2.2566719   -1.7684598    1.5165806    1.2569718 
       0.594   -4.0280389    2.2581212   -1.7699176    1.5175546    1.2424172 
       0.595    -4.030684    2.2594356   -1.7712483    1.5184379      1.22827 
       0.596   -4.0335711    2.2605961    -1.772975    1.5192178    1.2139137 
       0.597   -4.0361603    2.2615857   -1.7745746    1.5198829    1.2000653 
       0.598   -4.0380478    2.2623914   -1.7756564    1.5204244    1.1872637 
       0.599   -4.0402657    2.2630013   -1.7772643    1.5208342    1.1742072 
         0.6   -4.0420233    2.2634067   -1.7786166    1.5211067     1.161923 
       0.601   -4.0438368    2.2636017    -1.780235    1.5212377    1.1497637 
       0.602   -4.0454391    2.2635809   -1.7818582    1.5212237    1.1380801 
       0.603   -4.0465695    2.2633425    -1.783227    1.5210635    1.1272119 
       0.604    -4.047619    2.2628881   -1.7847309    1.5207581    1.1166643 
       0.605   -4.0484596    2.2622191   -1.7862405    1.5203085    1.1066019 
       0.606   -4.0489636    2.2613393   -1.7876243    1.5197173    1.0971867 
       0.607   -4.0492693    2.2602551   -1.7890141    1.5189887    1.0882397 
       0.608   -4.0497772    2.2589764   -1.7908009    1.5181293    1.0792458 
       0.609   -4.0498462    2.2575141   -1.7923321    1.5171466    1.0710173 
        0.61   -4.0493541    2.2558763   -1.7934778    1.5160459       1.0637 
       0.611   -4.0487003    2.2540732   -1.7946271    1.5148342    1.0567741 
       0.612   -4.0484215    2.2521169   -1.7963046    1.5135194    1.0495444 
       0.613   -4.0473552     2.250021   -1.7973343    1.5121109    1.0434795 
       0.614   -4.0469522    2.2478002    -1.799152    1.5106184     1.036719 
       0.615   -4.0459202    2.2454684   -1.8004517    1.5090514    1.0308935 
       0.616   -4.0450554    2.2430403   -1.8020151    1.5074195    1.0249749 
       0.617    -4.043852    2.2405308   -1.8033212    1.5057331    1.0195917 
       0.618   -4.0425857    2.2379562   -1.8046295    1.5040028    1.0143787 
       0.619   -4.0414032    2.2353323   -1.8060709    1.5022395    1.0091351 
        0.62   -4.0397957    2.2326735   -1.8071223    1.5004526    1.0044928 
       0.621   -4.0390822     2.229994   -1.8090882    1.4986519   0.99876273 
       0.622   -4.0381004    2.2273061   -1.8107943    1.4968455   0.99340839 
       0.623   -4.0371217    2.2246202   -1.8125016    1.4950404   0.98807253 
       0.624   -4.0357645    2.2219478   -1.8138167    1.4932445    0.9832291 
       0.625   -4.0346931       2.2193   -1.8153931    1.4914651   0.97802602 
       0.626   -4.0339127    2.2166845   -1.8172282    1.4897073   0.97244911 
       0.627   -4.0327773     2.214107   -1.8186703    1.4879751   0.96731115 
       0.628   -4.0318154    2.2115741   -1.8202413    1.4862729   0.96193752 
       0.629   -4.0311613    2.2090915   -1.8220698    1.4846045   0.95615647 
        0.63   -4.0308182    2.2066617   -1.8241565    1.4829716   0.94996334 
       0.631   -4.0298734    2.2042859   -1.8255875    1.4813749   0.94451484 
       0.632   -4.0289778    2.2019644   -1.8270133    1.4798148   0.93898907 
       0.633   -4.0283909     2.199695   -1.8286959    1.4782897   0.93306166 
       0.634   -4.0279787    2.1974742   -1.8305045    1.4767972   0.92690806 
       0.635    -4.027472    2.1952965   -1.8321755    1.4753337   0.92087564 
       0.636    -4.025955    2.1931576   -1.8327974    1.4738962   0.91613154 
       0.637    -4.025249    2.1910522   -1.8341968    1.4724813   0.91038288 
       0.638   -4.0252114    2.1889711   -1.8362403    1.4710827   0.90382113 
       0.639   -4.0247908    2.1869046   -1.8378862     1.469694   0.89778702 
        0.64   -4.0244973    2.1848438   -1.8396535     1.468309   0.89164897 
       0.641    -4.024191    2.1827776   -1.8414134    1.4669204   0.88559705 
       0.642   -4.0238608    2.1806958    -1.843165    1.4655214   0.87965953 
       0.643    -4.022973    2.1785865   -1.8443865    1.4641038   0.87452426 
       0.644   -4.0224284    2.1764378   -1.8459906    1.4626598   0.86906883 
       0.645   -4.0218246    2.1742389   -1.8475858     1.461182   0.86381628 
       0.646   -4.0212767    2.1719759   -1.8493008    1.4596612   0.85863529 
       0.647   -4.0205134    2.1696382   -1.8508751    1.4580902   0.85388254 
       0.648   -4.0192633    2.1672168   -1.8520466    1.4564629   0.84991441 
       0.649   -4.0181682    2.1646991   -1.8534691    1.4547709   0.84593471 
        0.65   -4.0170842    2.1620738   -1.8550104    1.4530066   0.84213629 
       0.651   -4.0158726    2.1593319   -1.8565407    1.4511639   0.83870543 
       0.652   -4.0145247    2.1564659   -1.8580588    1.4492378   0.83566351 
       0.653   -4.0130328    2.1534687   -1.8595641    1.4472236   0.83302886 
       0.654   -4.0113893    2.1503335   -1.8610559    1.4451166   0.83081799 
       0.655   -4.0097218    2.1470566   -1.8626652    1.4429144   0.82887694 
       0.656   -4.0078953     2.143636   -1.8642592    1.4406156   0.82737984 
       0.657   -4.0056465    2.1400686   -1.8655779    1.4382182   0.82665934 
       0.658   -4.0033664    2.1363535   -1.8670129    1.4357214   0.82622402 
       0.659   -4.0009228    2.1324919   -1.8684309    1.4331263   0.82623839 
        0.66   -3.9983179     2.128485   -1.8698328    1.4304335    0.8266955 
       0.661   -3.9955552    2.1243374   -1.8712178    1.4276461   0.82758539 
       0.662   -3.9925093    2.1200548   -1.8724545     1.424768   0.82905803 
       0.663   -3.9891876    2.1156457   -1.8735419    1.4218049   0.83109515 
       0.664   -3.9858595    2.1111189   -1.8747405    1.4187627   0.83334785 
       0.665   -3.9826633    2.1064825   -1.8761807    1.4156469    0.8356291 
       0.666   -3.9794805    2.1017503   -1.8777302    1.4124666   0.83807473 
       0.667    -3.976063    2.0969353   -1.8791277    1.4092307   0.84098096 
       0.668   -3.9725517    2.0920492   -1.8805025     1.405947   0.84415395 
       0.669    -3.968439    2.0871062   -1.8813328    1.4026252   0.84821274 
        0.67   -3.9649132    2.0821211   -1.8827922    1.3992749   0.85165091 
       0.671   -3.9613345    2.0771078   -1.8842266    1.3959058   0.85525235 
       0.672   -3.9571951    2.0720826   -1.8851125    1.3925286   0.85963534 
       0.673   -3.9535563    2.0670612   -1.8864951     1.389154   0.86345442 
       0.674   -3.9493833    2.0620555   -1.8873278      1.38579   0.86798728 
       0.675   -3.9456012    2.0570774   -1.8885238    1.3824445   0.87205977 
       0.676    -3.941569    2.0521397   -1.8894293    1.3791261   0.87645936 
       0.677   -3.9371679    2.0472546   -1.8899133    1.3758431    0.8813215 
       0.678     -3.93319    2.0424313   -1.8907587    1.3726017    0.8856435 
       0.679    -3.929119    2.0376768   -1.8914422    1.3694065   0.89005986 
        0.68   -3.9249611    2.0329977   -1.8919634    1.3662619   0.89455383 
       0.681   -3.9215024    2.0283994    -1.893103    1.3631717   0.89813596 
       0.682   -3.9180942     2.023886   -1.8942082    1.3601384   0.90161111 
       0.683    -3.914609    2.0194616   -1.8951474     1.357165   0.90513411 
       0.684   -3.9106574     2.015129   -1.8955284    1.3542534   0.90918774 
       0.685   -3.9071513    2.0108876   -1.8962637    1.3514029   0.91263004 
       0.686   -3.9038301    2.0067383   -1.8970919    1.3486144   0.91578401 
       0.687   -3.9003029    2.0026829   -1.8976199    1.3458891   0.91913594 
       0.688    -3.896832    1.9987228   -1.8981092    1.3432277   0.92235603 
       0.689   -3.8932863    1.9948603    -1.898426    1.3406319   0.92560562 
        0.69   -3.8900617    1.9910987    -1.898963     1.338104   0.92838837 
       0.691   -3.8872909    1.9874417   -1.8998491    1.3356463    0.9305354 
       0.692   -3.8836724    1.9838934    -1.899779    1.3332617   0.93366316 
       0.693   -3.8805155    1.9804589   -1.9000566    1.3309536   0.93613455 
       0.694   -3.8776957    1.9771455   -1.9005502    1.3287268   0.93809893 
       0.695   -3.8746995    1.9739612   -1.9007383    1.3265869   0.94018912 
       0.696   -3.8716633    1.9709142   -1.9007491    1.3245391   0.94222808 
       0.697   -3.8692486    1.9680132   -1.9012353    1.3225895   0.94338631 
       0.698   -3.8666785    1.9652663   -1.9014122    1.3207435   0.94462387 
       0.699   -3.8643515    1.9626803   -1.9016712    1.3190055   0.94543973 
         0.7   -3.8620117    1.9602611   -1.9017506    1.3173798   0.94614816 
       0.701   -3.8597931    1.9580141    -1.901779    1.3158697   0.94658072 
       0.702   -3.8580915    1.9559435    -1.902148    1.3144782    0.9462463 
       0.703   -3.8556028    1.9540502   -1.9015526    1.3132058   0.94676826 
       0.704   -3.8537577    1.9523308   -1.9014269    1.3120503   0.94637334 
       0.705    -3.852289    1.9507802   -1.9015088    1.3110082   0.94540151 
       0.706   -3.8506694    1.9493933   -1.9012761    1.3100761   0.94451869 
       0.707   -3.8494115    1.9481617   -1.9012499    1.3092484   0.94310165 
       0.708   -3.8478494    1.9470744    -1.900775    1.3085178   0.94199205 
       0.709   -3.8459746    1.9461205   -1.8998542    1.3078767   0.94121744 
        0.71   -3.8445541    1.9452861    -1.899268    1.3073159   0.93984462 
       0.711   -3.8429195    1.9445553   -1.8983642    1.3068248   0.93872112 
       0.712   -3.8415745     1.943912   -1.8976624    1.3063925   0.93724149 
       0.713   -3.8401128    1.9433406   -1.8967722    1.3060085   0.93592873 
       0.714   -3.8383885    1.9428273   -1.8955612    1.3056635   0.93498292 
       0.715   -3.8369105    1.9423589   -1.8945515    1.3053488    0.9337922 
       0.716   -3.8360573    1.9419226   -1.8941346    1.3050555   0.93190476 
       0.717   -3.8346413    1.9415064   -1.8931348    1.3047758    0.9308074 
       0.718   -3.8334361    1.9411013   -1.8923348    1.3045036   0.92955633 
       0.719   -3.8321719    1.9406997   -1.8914722    1.3042337   0.92849823 
        0.72   -3.8307138    1.9402958    -1.890418    1.3039622   0.92781086 
       0.721   -3.8294462    1.9398844   -1.8895618    1.3036858   0.92702678 
       0.722   -3.8281039    1.9394618   -1.8886421    1.3034017   0.92648055 
       0.723    -3.826292    1.9390248   -1.8872672    1.3031081   0.92666435 
       0.724   -3.8246614    1.9385723   -1.8860891     1.302804   0.92677514 
       0.725    -3.822693    1.9381068   -1.8845863    1.3024911   0.92745589 
       0.726   -3.8207809    1.9376316   -1.8831493    1.3021718   0.92821852 
       0.727   -3.8182749     1.937151    -1.881124    1.3018488   0.92986355 
       0.728   -3.8158344    1.9366705   -1.8791639    1.3015258    0.9315716 
       0.729   -3.8135953    1.9361961   -1.8773992    1.3012071    0.9331687 
        0.73   -3.8111736    1.9357358   -1.8754379    1.3008977   0.93512196 
       0.731   -3.8089678    1.9352975   -1.8736702    1.3006032   0.93693065 
       0.732   -3.8065953    1.9348901   -1.8717053    1.3003294   0.93905692 
       0.733   -3.8040657    1.9345239   -1.8695418    1.3000833   0.94147852 
       0.734   -3.8016518    1.9342104   -1.8674414    1.2998726   0.94384741 
       0.735   -3.7992334    1.9339612   -1.8652722    1.2997051   0.94629972 
       0.736   -3.7965615    1.9337881   -1.8627734    1.2995888   0.94912967 
       0.737   -3.7946928    1.9337048    -1.860988    1.2995328   0.95102181 
       0.738    -3.792466    1.9337238   -1.8587422    1.2995455   0.95339502 
       0.739   -3.7902836    1.9338569   -1.8564268     1.299635   0.95573921 
        0.74   -3.7888095    1.9341165   -1.8546929    1.2998095   0.95722377 
       0.741   -3.7862288    1.9345146   -1.8517142     1.300077   0.96007155 
       0.742   -3.7842477    1.9350612   -1.8491865    1.3004444   0.96216777 
       0.743   -3.7822247    1.9357674   -1.8464574    1.3009189   0.96429109 
       0.744    -3.780693    1.9366444   -1.8440486    1.3015083   0.96577501 
       0.745   -3.7786153    1.9376997   -1.8409156    1.3022176   0.96788599 
       0.746   -3.7773025    1.9389388   -1.8383636    1.3030503   0.96900094 
       0.747   -3.7757168    1.9403682   -1.8353486    1.3040109   0.97038965 
       0.748   -3.7738645    1.9419942   -1.8318703    1.3051037   0.97203881 
       0.749   -3.7722735    1.9438224    -1.828451    1.3063323   0.97329527 
        0.75   -3.7713374    1.9458552   -1.8254822    1.3076984   0.97367227 
       0.751   -3.7702717    1.9480915   -1.8221801    1.3092013   0.97413288 
       0.752   -3.7693367    1.9505293   -1.8188074    1.3108396   0.97435689 
       0.753   -3.7686609     1.953167   -1.8154939    1.3126122   0.97418905 
       0.754   -3.7675913    1.9560019   -1.8115894    1.3145174   0.97443589 
       0.755   -3.7670359    1.9590298   -1.8080061    1.3165523   0.97398801 
       0.756   -3.7665965    1.9622434   -1.8043531     1.318712    0.9733412 
       0.757   -3.7661328    1.9656321   -1.8005007    1.3209893   0.97267501 
       0.758   -3.7660265    1.9691849   -1.7968416    1.3233769   0.97152974 
       0.759   -3.7657463    1.9728908   -1.7928555    1.3258675   0.97056807 
        0.76   -3.7659344    1.9767398   -1.7891946    1.3284541   0.96901411 
       0.761   -3.7657976    1.9807189   -1.7850788    1.3311283   0.96785308 
       0.762   -3.7658434    1.9848128   -1.7810305    1.3338796    0.9664743 
       0.763   -3.7659325    1.9890099   -1.7769225    1.3367002   0.96506235 
       0.764   -3.7663125    1.9932974   -1.7730151    1.3395816   0.96332741 
       0.765   -3.7659274    1.9976602   -1.7682672    1.3425136   0.96257669 
       0.766   -3.7664603    2.0020843    -1.764376    1.3454867   0.96075989 
       0.767    -3.766595    2.0065548   -1.7600402    1.3484912   0.95950207 
       0.768   -3.7668411    2.0110577   -1.7557834    1.3515173   0.95819009 
       0.769   -3.7669292    2.0155809   -1.7513483    1.3545571   0.95716507 
        0.77    -3.766717    2.0201121   -1.7466049    1.3576022   0.95661071 
       0.771    -3.766717    2.0246383   -1.7420787     1.360644   0.95590731 
       0.772   -3.7667918    2.0291504   -1.7376414    1.3636763   0.95523081 
       0.773   -3.7666754    2.0336398   -1.7330356    1.3666934   0.95491314 
       0.774   -3.7664904    2.0380964    -1.728394    1.3696884   0.95480775 
       0.775   -3.7661022    2.0425129   -1.7235893    1.3726565   0.95508211 
       0.776   -3.7657704    2.0468847   -1.7188857    1.3755945   0.95542041 
       0.777   -3.7652311    2.0512066   -1.7140244    1.3784991   0.95614473 
       0.778    -3.765267    2.0554748   -1.7097922    1.3813674   0.95629611 
       0.779   -3.7648354     2.059687   -1.7051484    1.3841982   0.95714598 
        0.78    -3.764333     2.063845    -1.700488    1.3869926   0.95820545 
       0.781   -3.7638926    2.0679502   -1.6959424    1.3897515   0.95930636 
       0.782   -3.7629963    2.0720023    -1.690994    1.3924746   0.96107296 
       0.783   -3.7625625    2.0760023   -1.6865602    1.3951628   0.96237371 
       0.784   -3.7619456    2.0799548   -1.6819908    1.3978191   0.96398784 
       0.785   -3.7608929    2.0838649    -1.677028    1.4004469   0.96621312 
       0.786   -3.7599329     2.087736   -1.6721969    1.4030484   0.96839147 
       0.787   -3.7590749    2.0915744   -1.6675005     1.405628    0.9704993 
       0.788    -3.758198    2.0953871   -1.6628109    1.4081902   0.97267149 
       0.789   -3.7571809    2.0991807   -1.6580001    1.4107397   0.97504237 
        0.79   -3.7562962    2.1029635   -1.6533328    1.4132819    0.9772661 
       0.791   -3.7551612    2.1067418   -1.6484195    1.4158211   0.97979564 
       0.792   -3.7541778    2.1105237   -1.6436541    1.4183627   0.98212744 
       0.793   -3.7534865    2.1143166   -1.6391699    1.4209117   0.98407712 
       0.794    -3.752313    2.1181275   -1.6341855    1.4234728   0.98657565 
       0.795   -3.7510593    2.1219637   -1.6290956    1.4260509     0.989121 
       0.796   -3.7501268     2.125832   -1.6242948    1.4286505   0.99121278 
       0.797   -3.7492603    2.1297381   -1.6195221    1.4312756   0.99315179 
       0.798    -3.748988    2.1336846   -1.6153033    1.4339278   0.99428437 
       0.799   -3.7480086    2.1376757   -1.6103329      1.43661    0.9961871 
         0.8   -3.7476355    2.1417146   -1.6059208    1.4393244   0.99725408 
       0.801   -3.7473489     2.145804    -1.601545    1.4420726   0.99811295 
       0.802   -3.7470206    2.1499437    -1.597077    1.4448546   0.99891557 
       0.803   -3.7473026    2.1541317   -1.5931709    1.4476692   0.99886583 
       0.804   -3.7472813    2.1583669   -1.5889144    1.4505154    0.9990748 
       0.805   -3.7476079    2.1626458   -1.5849621     1.453391   0.99875121 
       0.806   -3.7477568    2.1669642   -1.5807925    1.4562932   0.99853698 
       0.807   -3.7478549     2.171317   -1.5765379    1.4592184   0.99828192 
       0.808   -3.7480285    2.1756985     -1.57233     1.462163   0.99783875 
       0.809    -3.748401    2.1801007   -1.5683003    1.4651214   0.99706426 
        0.81   -3.7489631    2.1845139   -1.5644491    1.4680873   0.99597746 
       0.811   -3.7498383    2.1889303    -1.560908    1.4710553   0.99443789 
       0.812   -3.7504978      2.19334   -1.5571578    1.4740188   0.99309779 
       0.813   -3.7511907    2.1977315   -1.5534593    1.4769701   0.99166387 
       0.814   -3.7517763     2.202095   -1.5496813    1.4799026   0.99031714 
       0.815   -3.7523778    2.2064205   -1.5459572    1.4828095   0.98891782 
       0.816   -3.7525939    2.2106986   -1.5418953    1.4856845   0.98796223 
       0.817    -3.753463    2.2149225   -1.5385405    1.4885232   0.98619969 
       0.818   -3.7540634    2.2190846   -1.5349788    1.4913203   0.98475684 
       0.819   -3.7546503    2.2231776   -1.5314728    1.4940709   0.98333056 
        0.82     -3.75509    2.2271971   -1.5278929    1.4967722   0.98208938 
       0.821   -3.7560314    2.2311403   -1.5248911    1.4994222   0.98025146 
       0.822   -3.7566907    2.2350053   -1.5216854    1.5020197   0.97877164 
       0.823   -3.7571958    2.2387901   -1.5184057    1.5045632   0.97749716 
       0.824   -3.7579357    2.2424937    -1.515442    1.5070522   0.97595811 
       0.825   -3.7583908    2.2461153   -1.5122755    1.5094861   0.97478486 
       0.826   -3.7582989    2.2496548   -1.5086441    1.5118648   0.97429495 
       0.827    -3.758446    2.2531147   -1.5053313      1.51419   0.97353637 
       0.828   -3.7584409    2.2564967   -1.5019442    1.5164628   0.97298295 
       0.829   -3.7586781    2.2598028   -1.4988753    1.5186846    0.9721567 
        0.83   -3.7588963    2.2630333    -1.495863    1.5208557   0.97137326 
       0.831   -3.7596185    2.2661888   -1.4934296    1.5229764   0.96999936 
       0.832   -3.7598004    2.2692712   -1.4905292    1.5250479   0.96929964 
       0.833   -3.7602248    2.2722795   -1.4879453    1.5270695   0.96832665 
       0.834   -3.7603698    2.2752143   -1.4851554    1.5290419   0.96771311 
       0.835   -3.7607576    2.2780754   -1.4826822    1.5309646   0.96682838 
       0.836   -3.7612551    2.2808613   -1.4803938    1.5328369   0.96583491 
       0.837   -3.7614691    2.2835709   -1.4778982    1.5346579   0.96521001 
       0.838   -3.7615296    2.2862035   -1.4753261    1.5364271   0.96479847 
       0.839   -3.7610435    2.2887592   -1.4722844    1.5381446   0.96507802 
        0.84   -3.7613152    2.2912366   -1.4700786    1.5398096   0.96447431 
       0.841   -3.7616883    2.2936329   -1.4680555    1.5414199   0.96378237 
       0.842   -3.7612467    2.2959452   -1.4653015    1.5429739   0.96411055 
       0.843   -3.7610308    2.2981713   -1.4628594      1.54447   0.96420336 
       0.844   -3.7612982    2.3003089   -1.4609894    1.5459065    0.9637514 
       0.845   -3.7612638    2.3023557   -1.4589081    1.5472821   0.96370474 
       0.846    -3.761056    2.3043105   -1.4567455    1.5485958   0.96390992 
       0.847   -3.7606739    2.3061729    -1.454501    1.5498474   0.96437033 
       0.848   -3.7603763    2.3079409   -1.4524355    1.5510355   0.96477543 
       0.849    -3.760029     2.309612    -1.450417    1.5521586   0.96528892 
        0.85   -3.7600212     2.311184   -1.4488372     1.553215   0.96544333 
       0.851   -3.7599581    2.3126543   -1.4473037    1.5542032   0.96571709 
       0.852    -3.759445    2.3140211   -1.4454239    1.5551217   0.96658841 
       0.853   -3.7587423    2.3152819   -1.4434603     1.555969   0.96774566 
       0.854    -3.757843    2.3164335   -1.4414095     1.556743   0.96919896 
       0.855   -3.7575283    2.3174727   -1.4400556    1.5574414   0.97000874 
       0.856   -3.7567503    2.3183972   -1.4383531    1.5580626   0.97144011 
       0.857   -3.7561579    2.3192038   -1.4369541    1.5586047     0.972712 
       0.858   -3.7556189    2.3198906   -1.4357282    1.5590663   0.97398465 
       0.859   -3.7550006    2.3204568   -1.4345438    1.5594468   0.97541819 
        0.86   -3.7539106    2.3209025   -1.4330081    1.5597463   0.97748471 
       0.861   -3.7528721    2.3212286   -1.4316435    1.5599655   0.97955256 
       0.862   -3.7516261    2.3214374   -1.4301887    1.5601057    0.9819308 
       0.863   -3.7504322    2.3215311   -1.4289011    1.5601687   0.98430256 
       0.864   -3.7492973    2.3215137   -1.4277836     1.560157   0.98665409 
       0.865   -3.7479633    2.3213908   -1.4265725    1.5600744    0.9892896 
       0.866   -3.7463065     2.321169   -1.4251375    1.5599254   0.99234982 
       0.867   -3.7448551    2.3208556   -1.4239996    1.5597148    0.9951902 
       0.868   -3.7432271    2.3204599   -1.4227671    1.5594489   0.99826076 
       0.869   -3.7419529    2.3199931   -1.4219598    1.5591352    1.0009135 
        0.87     -3.74026    2.3194642   -1.4207958    1.5587797    1.0040663 
       0.871   -3.7388113    2.3188847   -1.4199266    1.5583902    1.0069115 
       0.872   -3.7369642    2.3182654   -1.4186987    1.5579741    1.0102111 
       0.873   -3.7355095    2.3176152   -1.4178943    1.5575371    1.0130037 
       0.874   -3.7335437    2.3169443   -1.4165994    1.5570862    1.0163661 
       0.875   -3.7319878    2.3162619   -1.4157259    1.5566276    1.0191836 
       0.876   -3.7311098    2.3155747   -1.4155352    1.5561658    1.0211279 
       0.877   -3.7289584    2.3148889   -1.4140695    1.5557049    1.0245372 
       0.878   -3.7274938    2.3142095   -1.4132842    1.5552483     1.027054 
       0.879   -3.7259367    2.3135388   -1.4123979    1.5547976     1.029612 
        0.88    -3.724805    2.3128758   -1.4119292     1.554352    1.0315891 
       0.881   -3.7233148    2.3122185   -1.4110964    1.5539103     1.033927 
       0.882   -3.7221144    2.3115643   -1.4105501    1.5534707    1.0358509 
       0.883   -3.7206796    2.3109113   -1.4097683    1.5530318    1.0379949 
       0.884    -3.719396    2.3102534   -1.4091426    1.5525896    1.0399018 
       0.885   -3.7178644    2.3095841   -1.4082803    1.5521398    1.0420574 
       0.886   -3.7162112     2.308899   -1.4073122    1.5516794    1.0443189 
       0.887   -3.7149457     2.308187   -1.4067588    1.5512009     1.046083 
       0.888   -3.7136649    2.3074368   -1.4062281    1.5506968    1.0478414 
       0.889    -3.712099    2.3066395   -1.4054595    1.5501609     1.049927 
        0.89   -3.7111506     2.305785   -1.4053656    1.5495867     1.051268 
       0.891   -3.7093743    2.3048652    -1.404509    1.5489686    1.0536072 
       0.892   -3.7076764    2.3038704    -1.403806       1.5483     1.055869 
       0.893   -3.7060415    2.3027886   -1.4032529     1.547573    1.0580815 
       0.894   -3.7040697    2.3016103   -1.4024594    1.5467811    1.0607336 
       0.895   -3.7020126    2.3003256    -1.401687    1.5459178    1.0635335 
       0.896   -3.7001187     2.298923   -1.4011958    1.5449751    1.0661922 
       0.897   -3.6982447     2.297391   -1.4008537    1.5439456    1.0688887 
       0.898    -3.696642    2.2957204   -1.4009216    1.5428229    1.0713296 
       0.899   -3.6943887    2.2939037   -1.4004849     1.541602    1.0746243 
         0.9    -3.692262    2.2919346   -1.4003273    1.5402787    1.0778479 
       0.901   -3.6896002    2.2898051   -1.3997951    1.5388475    1.0817941 
       0.902   -3.6866595    2.2875097   -1.3991498    1.5373049    1.0861572 
       0.903   -3.6835674    2.2850472   -1.3985201      1.53565    1.0907841 
       0.904   -3.6805832    2.2824162    -1.398167    1.5338818    1.0953608 
       0.905   -3.6775751    2.2796153   -1.3979598    1.5319995    1.1000373 
       0.906   -3.6742845    2.2766481   -1.3976364    1.5300055    1.1051129 
       0.907   -3.6707186    2.2735227    -1.397196     1.527905     1.110566 
       0.908   -3.6671463    2.2702474   -1.3968989    1.5257039    1.1160579 
       0.909   -3.6637123    2.2668373    -1.396875    1.5234121    1.1213951 
        0.91   -3.6597829    2.2633112   -1.3964717    1.5210424      1.12731 
       0.911   -3.6561607      2.25969   -1.3964707    1.5186089    1.1328139 
       0.912   -3.6516978    2.2560009   -1.3956969    1.5161296    1.1392437 
       0.913   -3.6483827    2.2522754   -1.3961073    1.5136259    1.1441869 
       0.914   -3.6441602    2.2485485   -1.3956117    1.5111213    1.1500527 
       0.915   -3.6405059    2.2448598    -1.395646    1.5086424    1.1550317 
       0.916   -3.6369418    2.2412559   -1.3956859    1.5062203    1.1596426 
       0.917   -3.6332565    2.2377863   -1.3954702    1.5038886    1.1640817 
       0.918   -3.6295012    2.2345032    -1.394998    1.5016823    1.1682281 
       0.919   -3.6263838    2.2314627   -1.3949211    1.4996389    1.1711761 
        0.92    -3.623571    2.2287223   -1.3948487    1.4977972    1.1732604 
       0.921   -3.6213809    2.2263412   -1.3950396    1.4961971    1.1740397 
       0.922   -3.6196101     2.224378   -1.3952322    1.4948777    1.1736953 
       0.923   -3.6171394    2.2228896   -1.3942498    1.4938774     1.173504 
       0.924   -3.6163729    2.2219298   -1.3944431    1.4932324    1.1705482 
       0.925    -3.616179    2.2215438   -1.3946352     1.492973    1.1661297 
       0.926   -3.6164651    2.2217695   -1.3946957    1.4931247    1.1603196 
       0.927   -3.6168699    2.2226376   -1.3942323    1.4937081    1.1535191 
       0.928   -3.6180678    2.2241702   -1.3938977     1.494738     1.144906 
       0.929   -3.6204616    2.2263792   -1.3940824    1.4962226    1.1339943 
        0.93   -3.6228772     2.229266   -1.3936112    1.4981626    1.1221859 
       0.931   -3.6266108    2.2328211   -1.3937897    1.5005518    1.1079543 
       0.932   -3.6305971    2.2370245   -1.3935726    1.5033767    1.0925944 
       0.933   -3.6348075    2.2418464   -1.3929611    1.5066172    1.0761778 
       0.934    -3.640248    2.2472481   -1.3929999    1.5102474    1.0575549 
       0.935   -3.6460893    2.2531842   -1.3929051    1.5142367    1.0377678 
       0.936   -3.6526724    2.2596035   -1.3930689    1.5185507    1.0164741 
       0.937   -3.6592888    2.2664486   -1.3928402     1.523151   0.99458389 
       0.938   -3.6665313    2.2736596   -1.3928716    1.5279971    0.9714651 
       0.939   -3.6743393    2.2811746   -1.3931647    1.5330474   0.94726535 
        0.94   -3.6816055    2.2889294    -1.392676     1.538259    0.9233774 
       0.941   -3.6895719    2.2968599    -1.392712    1.5435886    0.8984028 
       0.942    -3.697527    2.3049041   -1.3926229    1.5489947   0.87326494 
       0.943   -3.7056697    2.3130005   -1.3926692    1.5544358   0.84780391 
       0.944   -3.7136789     2.321087   -1.3925919    1.5598703   0.82247448 
       0.945   -3.7213688    2.3291064   -1.3922624    1.5652597   0.79756916 
       0.946   -3.7290795    2.3370049   -1.3920746    1.5705678    0.7727537 
       0.947   -3.7366309    2.3447314   -1.3918995    1.5757604   0.74830759 
       0.948    -3.743846    2.3522387   -1.3916073    1.5808056   0.72450357 
       0.949   -3.7510733    2.3594804   -1.3915929    1.5856723   0.70098543 
        0.95   -3.7578813    2.3664142   -1.3914671    1.5903321   0.67831898 
       0.951   -3.7643633    2.3730024   -1.3913609    1.5947597   0.65644293 
       0.952   -3.7707484    2.3792106   -1.3915378    1.5989318   0.63513112 
       0.953   -3.7766157    2.3850078   -1.3916079    1.6028279   0.61492309 
       0.954   -3.7822047    2.3903699   -1.3918348    1.6064314    0.5955724 
       0.955   -3.7871018    2.3952745   -1.3918272    1.6097275   0.57760135 
       0.956   -3.7907682    2.3997034   -1.3910648    1.6127039    0.5616757 
       0.957   -3.7948869    2.4036414   -1.3912455    1.6153504   0.54582441 
       0.958   -3.7982719    2.4070744   -1.3911975    1.6176575   0.53147034 
       0.959   -3.8014385    2.4099949   -1.3914436    1.6196202   0.51801732 
        0.96   -3.8043824    2.4123991   -1.3919833     1.621236   0.50548086 
       0.961   -3.8067155    2.4142891   -1.3924263    1.6225061   0.49432715 
       0.962   -3.8084428     2.415667   -1.3927757    1.6234322   0.48455146 
       0.963   -3.8094369    2.4165361   -1.3929007    1.6240162   0.47630069 
       0.964   -3.8108839     2.416907   -1.3939769    1.6242655   0.46816486 
       0.965   -3.8109668     2.416791   -1.3941758    1.6241875   0.46228352 
       0.966   -3.8108755    2.4162026    -1.394673    1.6237921    0.4572335 
       0.967   -3.8106283    2.4151602   -1.3954681    1.6230915   0.45297551 
       0.968   -3.8101183    2.4136847   -1.3964336    1.6220999   0.44961452 
       0.969   -3.8085831    2.4117995   -1.3967836     1.620833   0.44802773 
        0.97   -3.8072223    2.4095295   -1.3976928    1.6193075   0.44676867 
       0.971   -3.8048888    2.4069028   -1.3979861    1.6175422   0.44716357 
       0.972   -3.8022655    2.4039488   -1.3983167     1.615557    0.4483724 
       0.973   -3.7996429    2.4006978   -1.3989451    1.6133722   0.45001665 
       0.974   -3.7969233    2.3971833     -1.39974    1.6110103   0.45217586 
       0.975   -3.7941411    2.3934405   -1.4007005     1.608495   0.45477252 
       0.976   -3.7910687    2.3895041   -1.4015646    1.6058495   0.45803669 
       0.977   -3.7877407     2.385409   -1.4023318    1.6030974   0.46188798 
       0.978    -3.784454    2.3811904   -1.4032636    1.6002623   0.46593554 
       0.979   -3.7807193    2.3768849   -1.4038344    1.5973689   0.47071736 
[...]
      49.767   -3.3822402     2.264202   -1.1180382    1.5216411   0.88701814 
      49.768   -3.3815607    2.2642591   -1.1173016    1.5216795   0.89064894 
      49.769   -3.3803786    2.2642013   -1.1161774    1.5216407   0.89499808 
       49.77   -3.3790769    2.2640194   -1.1150575    1.5215184   0.89964594 
      49.771   -3.3777783    2.2637042   -1.1140741    1.5213066   0.90446216 
      49.772   -3.3762123    2.2632476   -1.1129647    1.5209997   0.90975459 
      49.773   -3.3745026    2.2626422   -1.1118604    1.5205929   0.91539072 
      49.774    -3.372511    2.2618808   -1.1106302    1.5200812   0.92152848 
      49.775   -3.3708859    2.2609589    -1.109927    1.5194616   0.92744873 
      49.776    -3.368578    2.2598726   -1.1087055    1.5187316   0.93432311 
      49.777   -3.3663675    2.2586184   -1.1077491    1.5178887   0.94128248 
      49.778   -3.3637297    2.2571944   -1.1065354    1.5169317   0.94891048 
      49.779   -3.3613181     2.255601   -1.1057172    1.5158609   0.95647689 
       49.78   -3.3583506    2.2538399   -1.1045107    1.5146774   0.96484986 
      49.781   -3.3553522    2.2519153   -1.1034369    1.5133839    0.9734398 
      49.782   -3.3520667    2.2498308   -1.1022359    1.5119831   0.98252539 
      49.783   -3.3488892    2.2475907   -1.1012985    1.5104776   0.99165838 
      49.784   -3.3453032    2.2452019   -1.1001012    1.5088723    1.0014053 
      49.785   -3.3418391    2.2426726   -1.0991664    1.5071725    1.0111649 
      49.786    -3.337721    2.2400106   -1.0977104    1.5053835      1.02179 
      49.787   -3.3338707    2.2372246    -1.096646    1.5035112    1.0322406 
      49.788   -3.3301668    2.2343245   -1.0958424    1.5015621     1.042638 
      49.789   -3.3260973    2.2313211   -1.0947761    1.4995438    1.0535382 
       49.79    -3.322066    2.2282269   -1.0938391    1.4974643     1.064476 
      49.791   -3.3178236    2.2250542   -1.0927694    1.4953321    1.0757127 
      49.792   -3.3132499    2.2218155   -1.0914344    1.4931556    1.0873651 
      49.793    -3.309012    2.2185249   -1.0904871    1.4909442    1.0986722 
      49.794   -3.3046034    2.2151979   -1.0894055    1.4887083    1.1101805 
      49.795    -3.299644     2.211848    -1.087796     1.486457    1.1222936 
      49.796   -3.2949311    2.2084894   -1.0864418    1.4841998    1.1341035 
      49.797     -3.29074    2.2051376   -1.0856024    1.4819473    1.1452835 
      49.798   -3.2863032    2.2018084   -1.0844948    1.4797099    1.1566679 
      49.799   -3.2817652     2.198517   -1.0832481     1.477498    1.1680746 
        49.8   -3.2775319     2.195279   -1.0822529    1.4753219    1.1790302 
      49.801   -3.2736193     2.192111   -1.0815083    1.4731929    1.1894959 
      49.802   -3.2691298     2.189031   -1.0800988     1.471123    1.2004506 
      49.803   -3.2648648    2.1860561   -1.0788087    1.4691237    1.2109814 
      49.804   -3.2609675    2.1832011   -1.0777664     1.467205    1.2209075 
      49.805   -3.2571922    2.1804818   -1.0767105    1.4653775    1.2304824 
      49.806   -3.2534258    2.1779158     -1.07551    1.4636531    1.2398133 
      49.807   -3.2498111    2.1755178   -1.0742933    1.4620416    1.2487224 
      49.808   -3.2462289    2.1733008    -1.072928    1.4605516    1.2573242 
      49.809   -3.2430853    2.1712784   -1.0718069    1.4591925      1.26515 
       49.81   -3.2401285    2.1694617   -1.0706668    1.4579716    1.2724645 
      49.811   -3.2372379    2.1678613   -1.0693766     1.456896    1.2793876 
      49.812   -3.2346838    2.1664872   -1.0681965    1.4559726     1.285606 
      49.813   -3.2322131    2.1653488   -1.0668643    1.4552075    1.2913909 
      49.814   -3.2302241    2.1644543   -1.0657698    1.4546064    1.2962901 
      49.815   -3.2279391    2.1638096   -1.0641295    1.4541731    1.3011614 
      49.816   -3.2258838    2.1634188   -1.0624649    1.4539105    1.3054138 
      49.817    -3.224451    2.1632849   -1.0611661    1.4538205    1.3086059 
      49.818   -3.2229902    2.1634106   -1.0595795     1.453905    1.3114592 
      49.819   -3.2218935    2.1637983   -1.0580952    1.4541656     1.313537 
       49.82   -3.2211612    2.1644478   -1.0567134     1.454602    1.3148395 
      49.821   -3.2209206    2.1653575   -1.0555631    1.4552134    1.3152268 
      49.822   -3.2203838    2.1665246   -1.0538592    1.4559977     1.315578 
      49.823   -3.2199395    2.1679472   -1.0519922    1.4569538    1.3154648 
      49.824   -3.2201056    2.1696219   -1.0504837    1.4580793    1.3143162 
      49.825   -3.2198327    2.1715442   -1.0482885    1.4593711    1.3133048 
      49.826   -3.2198987    2.1737105   -1.0461882    1.4608269    1.3115719 
      49.827   -3.2208227    2.1761179   -1.0447048    1.4624448    1.3085476 
      49.828   -3.2216846    2.1787627    -1.042922    1.4642222    1.3052625 
      49.829   -3.2230011    2.1816395   -1.0413615    1.4661556    1.3011496 
       49.83   -3.2241135    2.1847443   -1.0393692    1.4682422    1.2969487 
      49.831   -3.2251476    2.1880736    -1.037074    1.4704796     1.292528 
      49.832   -3.2270142    2.1916248   -1.0353893    1.4728662    1.2868836 
      49.833   -3.2284031    2.1953952   -1.0330079       1.4754    1.2814797 
      49.834   -3.2303555    2.1993826   -1.0309729    1.4780797    1.2751675 
      49.835   -3.2327368    2.2035842   -1.0291526    1.4809034    1.2681044 
      49.836   -3.2350203    2.2079971   -1.0270232     1.483869    1.2608834 
      49.837   -3.2374646    2.2126203   -1.0248443     1.486976    1.2532254 
      49.838   -3.2403301    2.2174547   -1.0228754    1.4902249      1.24485 
      49.839   -3.2433539     2.222499   -1.0208549    1.4936149    1.2360573 
       49.84     -3.24627    2.2277506   -1.0185194    1.4971442    1.2271509 
      49.841   -3.2495984    2.2332094    -1.016389    1.5008128    1.2175622 
      49.842   -3.2526863    2.2388758   -1.0138105    1.5046208    1.2080259 
      49.843   -3.2559211    2.2447478   -1.0111733    1.5085671    1.1981216 
      49.844   -3.2591698    2.2508234   -1.0083463    1.5126502    1.1880075 
      49.845    -3.262556    2.2570994   -1.0054566    1.5168678    1.1775576 
      49.846   -3.2665975    2.2635715   -1.0030259    1.5212174    1.1662096 
      49.847   -3.2705035    2.2702368   -1.0002667    1.5256968    1.1548557 
      49.848   -3.2738804    2.2770907  -0.99678974    1.5303029    1.1439488 
      49.849   -3.2778891    2.2841235  -0.99376559    1.5350292    1.1322163 
       49.85   -3.2821246    2.2913237  -0.99080093    1.5398681    1.1201249 
      49.851   -3.2868372    2.2986822  -0.98815499    1.5448133    1.1074182 
      49.852   -3.2914903    2.3061865  -0.98530382    1.5498565    1.0947134 
      49.853   -3.2956741    2.3138202  -0.98185388    1.5549867    1.0824881 
      49.854   -3.2998932    2.3215675  -0.97832562    1.5601932    1.0702079 
      49.855   -3.3042603    2.3294124  -0.97484789    1.5654653    1.0577755 
      49.856   -3.3090154    2.3373355  -0.97167997      1.57079    1.0449533 
      49.857   -3.3132207    2.3453154  -0.96790526    1.5761528    1.0328117 
      49.858   -3.3178966    2.3533299  -0.96456672    1.5815389    1.0202498 
      49.859   -3.3219717    2.3613535  -0.96061827    1.5869311    1.0084875 
       49.86   -3.3260712      2.36936  -0.95671117    1.5923119   0.99686362 
      49.861   -3.3300376    2.3773236  -0.95271394    1.5976637    0.9855859 
      49.862   -3.3343657    2.3852198  -0.94914593    1.6029703   0.97413977 
      49.863   -3.3385066     2.393023  -0.94548362    1.6082144   0.96316764 
      49.864     -3.34204    2.4007062  -0.94133374    1.6133779   0.95316801 
      49.865      -3.3452    2.4082431  -0.93695692    1.6184429   0.94391356 
      49.866   -3.3479582     2.415607   -0.9323512    1.6233918   0.93546685 
      49.867   -3.3505498    2.4227725  -0.92777728    1.6282073   0.92759717 
      49.868   -3.3525572    2.4297147  -0.92284242    1.6328728   0.92079567 
      49.869    -3.354478    2.4364105  -0.91806754    1.6373726    0.9145376 
       49.87   -3.3561599    2.4428383  -0.91332163    1.6416924   0.90901672 
      49.871   -3.3570614    2.4489786  -0.90808289    1.6458189   0.90485533 
      49.872   -3.3582069    2.4548142  -0.90339275    1.6497407   0.90093898 
      49.873   -3.3586686    2.4603291  -0.89833948     1.653447   0.89831216 
      49.874   -3.3582998    2.4655083  -0.89279155    1.6569276   0.89715034 
      49.875   -3.3577436    2.4703412  -0.88740237    1.6601755   0.89675191 
      49.876   -3.3569916    2.4748208  -0.88217084     1.663186    0.8971329 
      49.877   -3.3556491    2.4789413  -0.87670779    1.6659552   0.89873279 
      49.878   -3.3537122    2.4826999  -0.87101229    1.6684811   0.90155331 
      49.879    -3.351576    2.4860986  -0.86547743    1.6707652   0.90515076 
       49.88   -3.3488578    2.4891443  -0.85971353     1.672812   0.90993771 
      49.881   -3.3455679     2.491847  -0.85372085    1.6746284   0.91588633 
      49.882   -3.3418518    2.4942206  -0.84763118    1.6762235   0.92281333 
      49.883   -3.3381246    2.4962863  -0.84183832    1.6776118   0.93023307 
      49.884   -3.3331089    2.4980694  -0.83503943    1.6788101   0.93952648 
      49.885   -3.3283993    2.4995973  -0.82880199    1.6798369   0.94888983 
      49.886   -3.3235098    2.5009037  -0.82260611    1.6807148   0.95881669 
      49.887   -3.3175713    2.5020308  -0.81554047    1.6814723   0.97021955 
      49.888   -3.3121993    2.5030253  -0.80917395    1.6821407   0.98125718 
      49.889   -3.3064024    2.5039363  -0.80246603    1.6827529   0.99296602 
       49.89   -3.3004976    2.5048172  -0.79568037    1.6833449    1.0049306 
      49.891   -3.2945439    2.5057257  -0.78881818    1.6839554     1.017017 
      49.892   -3.2887385    2.5067232  -0.78201532    1.6846258    1.0289353 
      49.893   -3.2827565    2.5078737  -0.77488279     1.685399    1.0409702 
      49.894   -3.2771897    2.5092445  -0.76794524    1.6863202    1.0523916 
      49.895   -3.2717178    2.5109024  -0.76081546    1.6874344    1.0634771 
      49.896   -3.2665411    2.5129134  -0.75362766    1.6887859    1.0739288 
      49.897   -3.2618593    2.5153443  -0.74651507    1.6904195    1.0834517 
      49.898   -3.2574796    2.5182592  -0.73922046    1.6923785    1.0921875 
      49.899   -3.2535967    2.5217179  -0.73187876    1.6947029    1.0998537 
        49.9   -3.2507925    2.5257769  -0.72501563    1.6974307    1.1057451 
      49.901   -3.2484687     2.530486  -0.71798269    1.7005954    1.1104673 
      49.902   -3.2465404    2.5358871  -0.71065323    1.7042252    1.1140654 
      49.903   -3.2451784    2.5420157   -0.7031627    1.7083439     1.116311 
      49.904   -3.2445432    2.5488973  -0.69564589    1.7129686    1.1169965 
      49.905   -3.2450456    2.5565463  -0.68849927    1.7181091    1.1156475 
      49.906   -3.2463026    2.5649663  -0.68133633    1.7237677    1.1126775 
      49.907   -3.2481827    2.5741513  -0.67403141    1.7299404     1.108234 
      49.908   -3.2506735    2.5840839  -0.66658954    1.7366156     1.102345 
      49.909   -3.2540129    2.5947332  -0.65927966    1.7437723    1.0947731 
       49.91    -3.258294    2.6060572  -0.65223683    1.7513825    1.0854529 
      49.911   -3.2626875     2.618003   -0.6446845    1.7594106    1.0753483 
      49.912    -3.268049    2.6305057  -0.63754326     1.767813     1.063573 
      49.913   -3.2731388     2.643493  -0.62964576     1.776541    1.0515629 
      49.914   -3.2791885    2.6568839  -0.62230457    1.7855403    1.0380342 
      49.915    -3.285466    2.6705906  -0.61487539    1.7947518    1.0238762 
      49.916   -3.2917559    2.6845216  -0.60723424     1.804114    1.0094123 
      49.917    -3.298495    2.6985821   -0.5999129    1.8135632   0.99424834 
      49.918   -3.3054666    2.7126778  -0.59278879    1.8230362   0.97871241 
      49.919   -3.3131095     2.726717  -0.58639253    1.8324711   0.96240852 
       49.92   -3.3196452    2.7406103  -0.57903498     1.841808   0.94738266 
      49.921   -3.3264341    2.7542717  -0.57216247     1.850989   0.93221419 
      49.922   -3.3330129    2.7676213  -0.56539161    1.8599605   0.91748792 
      49.923   -3.3390577    2.7805879  -0.55846978    1.8686747   0.90362865 
      49.924   -3.3454277    2.7931084  -0.55231931     1.877089    0.8897498 
      49.925   -3.3505084    2.8051276  -0.54538076    1.8851664   0.87768392 
      49.926    -3.355308    2.8165997   -0.5387083    1.8928761   0.86636458 
      49.927   -3.3597961    2.8274874  -0.53230869    1.9001931   0.85586278 
      49.928    -3.364471    2.8377594  -0.52671162    1.9070964   0.84565838 
      49.929   -3.3683994      2.84739  -0.52100932    1.9135686   0.83680127 
       49.93    -3.371573    2.8563639  -0.51520903    1.9195994   0.82931578 
      49.931   -3.3737254    2.8646718  -0.50905356    1.9251827   0.82350467 
      49.932    -3.376425     2.872309  -0.50411591    1.9303152    0.8176432 
      49.933   -3.3781106    2.8792768  -0.49883381    1.9349979   0.81344961 
      49.934   -3.3791849    2.8855808  -0.49360409    1.9392344   0.81047436 
      49.935   -3.3797899    2.8912301  -0.48855976     1.943031   0.80855061 
      49.936   -3.3803317    2.8962362  -0.48409543    1.9463953   0.80721728 
      49.937   -3.3799165    2.9006162  -0.47930032    1.9493388   0.80744255 
      49.938   -3.3788278    2.9043894  -0.47443834    1.9518746   0.80889562 
      49.939   -3.3782625    2.9075766  -0.47068592    1.9540165   0.81023735 
       49.94   -3.3768087    2.9101996  -0.46660916    1.9557793   0.81299919 
      49.941   -3.3748818    2.9122821  -0.46259971    1.9571788   0.81669897 
      49.942   -3.3730329    2.9138511  -0.45918182    1.9582332   0.82070463 
      49.943   -3.3714149    2.9149329  -0.45648197    1.9589603    0.8248208 
      49.944   -3.3687518    2.9155543  -0.45319751    1.9593779   0.83042359 
      49.945   -3.3662459    2.9157432  -0.45050268    1.9595049   0.83616102 
      49.946   -3.3632709    2.9155276  -0.44774336    1.9593599   0.84269267 
      49.947    -3.360772    2.9149376   -0.4458344    1.9589634    0.8489495 
      49.948   -3.3577327    2.9140039  -0.44372882    1.9583359   0.85602056 
      49.949   -3.3540489    2.9127553  -0.44129356    1.9574968   0.86399068 
       49.95   -3.3509271    2.9112229  -0.43970426     1.956467   0.87150385 
      49.951   -3.3472192    2.9094366   -0.4377826    1.9552665   0.87979504 
      49.952   -3.3438641    2.9074231  -0.43644097    1.9539134   0.88780282 
      49.953    -3.340363    2.9052071   -0.4351559    1.9524241   0.89604807 
      49.954    -3.337131    2.9028138  -0.43431716    1.9508157   0.90404835 
      49.955   -3.3335379    2.9002691  -0.43326875    1.9491056   0.91247311 
      49.956   -3.3301303    2.8975979  -0.43253243    1.9473104   0.92069966 
      49.957   -3.3267966    2.8948213  -0.43197525    1.9454445   0.92883043 
      49.958   -3.3240735    2.8919571  -0.43211643    1.9435195   0.93625659 
      49.959   -3.3208004    2.8890213   -0.4317791    1.9415465     0.944238 
       49.96   -3.3180331    2.8860268  -0.43200623    1.9395342   0.95159977 
      49.961   -3.3155201    2.8829855  -0.43253467    1.9374902   0.95860726 
      49.962   -3.3126153    2.8799061  -0.43270924    1.9354207   0.96596199 
      49.963   -3.3101074    2.8767958  -0.43331158    1.9333305   0.97279094 
      49.964   -3.3074812    2.8736637  -0.43381748    1.9312256   0.97965839 
      49.965   -3.3056502    2.8705125  -0.43513767    1.9291079    0.9855596 
      49.966   -3.3038272    2.8673391  -0.43648809    1.9269752   0.99135972 
      49.967   -3.3017458    2.8641398  -0.43760599    1.9248252   0.99735418 
      49.968   -3.2999212    2.8609103  -0.43901085    1.9226548    1.0029826 
      49.969   -3.2982154     2.857645  -0.44057045    1.9204603    1.0084042 
       49.97   -3.2963586    2.8543357  -0.44202292    1.9182363    1.0139249 
      49.971   -3.2944703    2.8509735  -0.44349684    1.9159768    1.0194247 
      49.972   -3.2929265     2.847546  -0.44538051    1.9136734    1.0245034 
      49.973   -3.2911908    2.8440398  -0.44715094    1.9113171    1.0297642 
      49.974   -3.2897698    2.8404415  -0.44932827    1.9088989    1.0346667 
      49.975   -3.2882568    2.8367364  -0.45152042    1.9064088    1.0396751 
      49.976    -3.286892    2.8329084  -0.45398354    1.9038363    1.0445439 
      49.977   -3.2855291    2.8289411  -0.45658799    1.9011701    1.0494531 
      49.978   -3.2841451    2.8248152  -0.45932981    1.8983973    1.0544474 
      49.979   -3.2827173    2.8205096  -0.46220772    1.8955038    1.0595708 
       49.98   -3.2808344     2.816006  -0.46482845    1.8924771    1.0652954 
      49.981   -3.2792573    2.8112859  -0.46797136     1.889305    1.0708064 
      49.982   -3.2773127    2.8063298  -0.47098291    1.8859743    1.0768619 
      49.983   -3.2753705    2.8011199  -0.47425054    1.8824731    1.0830751 
      49.984   -3.2732814    2.7956394  -0.47764193    1.8787899    1.0896276 
      49.985   -3.2715491    2.7898726  -0.48167645    1.8749144    1.0959829 
      49.986   -3.2693747     2.783807  -0.48556774     1.870838    1.1030325 
      49.987   -3.2670048    2.7774307  -0.48957414    1.8665529    1.1105185 
      49.988   -3.2644256    2.7707337   -0.4936919    1.8620522    1.1184655 
      49.989    -3.262019    2.7637104  -0.49830866    1.8573322    1.1264628 
       49.99   -3.2586059    2.7563588  -0.50224705    1.8523917     1.135809 
      49.991   -3.2541831    2.7486804  -0.50550275    1.8472314      1.14651 
      49.992   -3.2505777    2.7406768   -0.5099009    1.8418527    1.1565609 
      49.993    -3.246743    2.7323521  -0.51439086    1.8362581     1.167105 
      49.994   -3.2424255    2.7237166  -0.51870892    1.8304547    1.1784141 
      49.995   -3.2381532    2.7147803  -0.52337288    1.8244491    1.1898995 
      49.996   -3.2339318     2.705554  -0.52837771    1.8182487    1.2015417 
      49.997   -3.2293834    2.6960558  -0.53332762    1.8118655    1.2137415 
      49.998   -3.2245217     2.686303  -0.53821873    1.8053112    1.2264678 
      49.999   -3.2192285    2.6763132  -0.54291527    1.7985976    1.2398322 
          50   -3.2140395    2.6661049  -0.54793461    1.7917372    1.2532282 
Loop time of 10.0399 on 8 procs for 50000 steps with 125 atoms

Performance: 430283.300 tau/day, 4980.131 timesteps/s
83.3% CPU use with 1 MPI tasks x 8 OpenMP threads

MPI task timing breakdown:
Section |  min time  |  avg time  |  max time  |%varavg| %total
---------------------------------------------------------------
Pair    | 3.2209     | 3.2209     | 3.2209     |   0.0 | 32.08
Neigh   | 0.0073128  | 0.0073128  | 0.0073128  |   0.0 |  0.07
Comm    | 0.22583    | 0.22583    | 0.22583    |   0.0 |  2.25
Output  | 0.98608    | 0.98608    | 0.98608    |   0.0 |  9.82
Modify  | 5.5788     | 5.5788     | 5.5788     |   0.0 | 55.57
Other   |            | 0.02097    |            |       |  0.21

Nlocal:        125.000 ave         125 max         125 min
Histogram: 1 0 0 0 0 0 0 0 0 0
Nghost:        1820.00 ave        1820 max        1820 min
Histogram: 1 0 0 0 0 0 0 0 0 0
Neighs:        13092.0 ave       13092 max       13092 min
Histogram: 1 0 0 0 0 0 0 0 0 0

Total # of neighbors = 13092
Ave neighs/atom = 104.73600
Neighbor list builds = 187
Dangerous builds = 0
unfix nve
ERROR: Could not find fix ID to delete (src/modify.cpp:1037)
Last command: unfix nve
