
### SPECIFY THE NUMBER OF PRODUCTION STEPS ###
variable Nprod equal 30000

### ASSIGN ATOMIC VELOCITIES ###
velocity all create ${T} 12345 dist gaussian rot yes mom yes
velocity all create 1.5 12345 dist gaussian rot yes mom yes

### SPECIFY ENSEMBLE ###
timestep ${timestep}
timestep 0.002
fix 1 all npt temp ${T} ${T} 0.1 iso ${p} ${p} 1.0
fix 1 all npt temp 1.5 ${T} 0.1 iso ${p} ${p} 1.0
fix 1 all npt temp 1.5 1.5 0.1 iso ${p} ${p} 1.0
fix 1 all npt temp 1.5 1.5 0.1 iso 1 ${p} 1.0
fix 1 all npt temp 1.5 1.5 0.1 iso 1 1 1.0

### THERMODYNAMIC OUTPUT CONTROL ###
thermo_style custom time pe ke etotal temp press
thermo 1

### RECORD TRAJECTORY ###
dump traj all custom 1000 traj.dump id x y z

### SPECIFY TIMESTEP ###
variable n_steps equal floor(50/${timestep})
variable n_steps equal floor(50/0.002)
timestep ${timestep}
timestep 0.002

### RUN SIMULATION TO MELT CRYSTAL ###
run ${n_steps}
run 25000
Last active /omp style is pair_style lj/cut/omp
Neighbor list info ...
  update every 1 steps, delay 10 steps, check yes
  max neighbors/atom: 2000, page size: 100000
  master list distance cutoff = 4.5
  ghost atom cutoff = 4.5
  binsize = 2.25, bins = 3 3 3
  1 neighbor lists, perpetual/occasional/extra = 1 0 0
  (1) pair lj/cut/omp, perpetual
      attributes: half, newton on, omp
      pair build: half/bin/atomonly/newton/omp
      stencil: half/bin/3d/newton
      bin: standard
Per MPI rank memory allocation (min/avg/max) = 10.63 | 10.63 | 10.63 Mbytes
Time PotEng KinEng TotEng Temp Press 
           0   -5.2647711        2.232   -3.0327711          1.5   0.89516323 
       0.002   -5.2627239    2.2299504   -3.0327735    1.4986226   0.90287521 
       0.004   -5.2565586    2.2237849   -3.0327736    1.4944791   0.92607813 
       0.006   -5.2462369    2.2134701   -3.0327668    1.4875471   0.96485662 
       0.008   -5.2317182    2.1989732    -3.032745    1.4778045    1.0192751 
        0.01   -5.2129626     2.180265   -3.0326976    1.4652319    1.0893685 
       0.012   -5.1899347    2.1573236   -3.0326111    1.4498143    1.1751296 
       0.014    -5.162609    2.1301392   -3.0324698    1.4315452    1.2764916 
       0.016   -5.1309769    2.0987207   -3.0322562    1.4104306    1.3933068 
       0.018    -5.094925     2.063105     -3.03182    1.3864953    1.5255285 
        0.02    -5.054379    2.0233677   -3.0310113    1.3597901    1.6729672 
       0.022   -5.0090571    1.9796358   -3.0294213    1.3304004    1.8356678 
       0.024   -4.9597765    1.9320922   -3.0276843    1.2984491    2.0118057 
       0.026   -4.9065097     1.880988   -3.0255217    1.2641048    2.2007638 
       0.028    -4.849721    1.8266628   -3.0230582    1.2275959    2.4009879 
        0.03   -4.7900977    1.7695574   -3.0205403    1.1892187    2.6103997 
       0.032   -4.7275358    1.7102218   -3.0173139    1.1493426    2.8279988 
       0.034   -4.6630904    1.6493228   -3.0137676    1.1084159    3.0507513 
       0.036   -4.5980779    1.5876468   -3.0104311    1.0669669    3.2750298 
       0.038   -4.5319729    1.5260939    -3.005879    1.0256007    3.4999825 
        0.04   -4.4678667    1.4656472   -3.0022195   0.98497793    3.7188697 
       0.042    -4.406037    1.4073459   -2.9986912   0.94579696    3.9293581 
       0.044   -4.3470452    1.3522524   -2.9947927   0.90877179    4.1286607 
       0.046    -4.291814    1.3014017   -2.9904123   0.87459789    4.3134879 
       0.048   -4.2426159    1.2557409    -2.986875   0.84391192    4.4785579 
        0.05   -4.1993592    1.2160856   -2.9832735   0.81726186    4.6225906 
       0.052   -4.1636071     1.183075   -2.9805321   0.79507727    4.7419823 
       0.054   -4.1344705    1.1571302   -2.9773403   0.77764123    4.8373821 
       0.056   -4.1129281     1.138462   -2.9744661   0.76509542    4.9068592 
       0.058   -4.0977682    1.1270579   -2.9707104   0.75743136    4.9523441 
        0.06    -4.090419    1.1226776   -2.9677414   0.75448765    4.9719209 
       0.062   -4.0889926    1.1249046    -2.964088   0.75598424    4.9692495 
       0.064   -4.0931704    1.1331875   -2.9599829   0.76155077    4.9457546 
       0.066   -4.1029039    1.1468647   -2.9560392   0.77074241    4.9026201 
       0.068   -4.1172998    1.1652001   -2.9520997   0.78306458    4.8424897 
        0.07   -4.1345285    1.1874232   -2.9471053   0.79799949    4.7695527 
       0.072   -4.1539406    1.2127603   -2.9411803   0.81502705    4.6861413 
       0.074   -4.1758289    1.2404532   -2.9353757   0.83363791    4.5930679 
       0.076   -4.1996261    1.2697836   -2.9298426   0.85334918    4.4924443 
       0.078   -4.2243076     1.300087   -2.9242205   0.87371439    4.3870152 
        0.08   -4.2497046    1.3307573   -2.9189473   0.89432615     4.278063 
       0.082   -4.2742905    1.3612607   -2.9130298   0.91482576    4.1688901 
       0.084   -4.2974144    1.3911447   -2.9062697   0.93490909     4.061289 
       0.086   -4.3196785    1.4200401   -2.8996384   0.95432802    3.9549514 
       0.088   -4.3412398    1.4476523   -2.8935875   0.97288459    3.8501396 
        0.09   -4.3612879     1.473768   -2.8875199    0.9904355    3.7485102 
       0.092   -4.3798694    1.4982624    -2.881607    1.0068968    3.6502635 
       0.094   -4.3970957    1.5210802   -2.8760155    1.0222313    3.5553949 
       0.096   -4.4131312    1.5422278   -2.8709034    1.0364434    3.4637285 
       0.098   -4.4276617    1.5617688   -2.8658928    1.0495758    3.3757684 
         0.1   -4.4402741    1.5798059   -2.8604682    1.0616975    3.2921146 
       0.102   -4.4513554    1.5964671   -2.8548883    1.0728946    3.2120786 
       0.104   -4.4618212    1.6118972    -2.849924    1.0832642    3.1341282 
       0.106   -4.4724544    1.6262476   -2.8462068    1.0929083    3.0569317 
       0.108   -4.4796067    1.6396748   -2.8399318     1.101932    2.9860363 
        0.11   -4.4879658    1.6523239   -2.8356419    1.1104327    2.9140408 
       0.112   -4.4960685      1.66433   -2.8317385    1.1185013    2.8431008 
       0.114   -4.5036335    1.6758321   -2.8278013    1.1262313    2.7735437 
       0.116   -4.5112798     1.686956   -2.8243238     1.133707    2.7043065 
       0.118   -4.5184391    1.6978155   -2.8206236     1.141005    2.6361627 
        0.12   -4.5253267    1.7085238   -2.8168029    1.1482015     2.568683 
       0.122     -4.53241    1.7191819   -2.8132281    1.1553642    2.5010564 
       0.124   -4.5391036    1.7298819   -2.8092217     1.162555    2.4341002 
       0.126   -4.5463806     1.740708   -2.8056726    1.1698306    2.3662486 
       0.128    -4.553639    1.7517333   -2.8019058    1.1772401    2.2983676 
        0.13   -4.5602691    1.7630246   -2.7972446    1.1848283    2.2313473 
       0.132    -4.567609    1.7746279   -2.7929811    1.1926263    2.1631108 
       0.134   -4.5763233    1.7865798   -2.7897435    1.2006584    2.0926381 
       0.136   -4.5845976    1.7989027   -2.7856949      1.20894    2.0227032 
       0.138   -4.5909898    1.8116078    -2.779382    1.2174784    1.9555134 
        0.14   -4.5988844    1.8246947   -2.7741896    1.2262733    1.8859535 
       0.142   -4.6068179    1.8381488    -2.768669    1.2353151    1.8162932 
       0.144   -4.6156788    1.8519552   -2.7637235    1.2445936    1.7452451 
       0.146   -4.6253022    1.8660844   -2.7592179    1.2540889    1.6731235 
       0.148   -4.6344675    1.8804998   -2.7539677    1.2637768    1.6018386 
        0.15   -4.6440528    1.8951681   -2.7488847    1.2736345    1.5301333 
       0.152   -4.6528485    1.9100557   -2.7427928    1.2836396    1.4598999 
       0.154   -4.6619914    1.9251262   -2.7368652    1.2937676    1.3894938 
       0.156   -4.6702784    1.9403473   -2.7299311    1.3039969    1.3207902 
       0.158    -4.679504    1.9556835   -2.7238205    1.3143034     1.251161 
        0.16   -4.6874168    1.9710977   -2.7163191    1.3246624    1.1840381 
       0.162    -4.696731    1.9865597   -2.7101712    1.3350536    1.1154213 
       0.164   -4.7048137    2.0020415   -2.7027722     1.345458    1.0493011 
       0.166   -4.7125546    2.0175095   -2.6950451    1.3558532   0.98439506 
       0.168   -4.7209752    2.0329344   -2.6880408    1.3662194   0.91922895 
        0.17   -4.7283697    2.0482966    -2.680073    1.3765434   0.85638404 
       0.172   -4.7358982    2.0635697   -2.6723285    1.3868076   0.79417021 
       0.174   -4.7436739    2.0787283   -2.6649456    1.3969948   0.73245257 
       0.176   -4.7506479    2.0937562   -2.6568916    1.4070942   0.67281435 
       0.178   -4.7573394    2.1086386   -2.6487008    1.4170958   0.61451515 
        0.18   -4.7634868    2.1233605   -2.6401263    1.4269896   0.55797078 
       0.182    -4.769473    2.1379029   -2.6315701    1.4367627   0.50264948 
       0.184   -4.7750269    2.1522415   -2.6227854    1.4463988   0.44898986 
       0.186   -4.7805236    2.1663488   -2.6141748    1.4558796    0.3964906 
       0.188   -4.7856802    2.1801908   -2.6054894     1.465182   0.34563034 
        0.19   -4.7912482    2.1937196   -2.5975287    1.4742739   0.29538189 
       0.192   -4.7946973    2.2068737   -2.5878236     1.483114   0.24953026 
       0.194   -4.7985884    2.2195848   -2.5790037    1.4916564   0.20442612 
       0.196   -4.8020777    2.2317795   -2.5702982    1.4998518   0.16141211 
       0.198   -4.8047082      2.24338   -2.5613282    1.5076479   0.12126911 
         0.2   -4.8073193    2.2542994     -2.55302    1.5149861   0.08289116 
       0.202   -4.8087952    2.2644486   -2.5443466    1.5218069  0.048014002 
       0.204   -4.8097208    2.2737457   -2.5359752    1.5280549  0.015896716 
       0.206   -4.8095041    2.2821092   -2.5273949    1.5336755 -0.012505177 
       0.208   -4.8083497    2.2894684   -2.5188813    1.5386212 -0.037403635 
        0.21   -4.8064782    2.2957685   -2.5107097    1.5428552 -0.059044414 
       0.212   -4.8035939    2.3009614   -2.5026325     1.546345 -0.076946742 
       0.214   -4.7988881    2.3050124   -2.4938757    1.5490675 -0.089911103 
       0.216   -4.7935261    2.3078995   -2.4856266    1.5510077 -0.099603974 
       0.218   -4.7868523     2.309611   -2.4772413    1.5521579  -0.10508939 
        0.22   -4.7795307    2.3101504   -2.4693803    1.5525204  -0.10735153 
       0.222   -4.7713256    2.3095408   -2.4617848    1.5521107  -0.10610161 
       0.224   -4.7620275    2.3078262   -2.4542014    1.5509585  -0.10111138 
       0.226   -4.7518293    2.3050632    -2.446766    1.5491016 -0.092755793 
       0.228   -4.7404149    2.3013275   -2.4390874    1.5465911 -0.080703612 
        0.23   -4.7289192    2.2967114   -2.4322078    1.5434889 -0.066717422 
       0.232   -4.7166607    2.2913201   -2.4253406    1.5398657 -0.049979764 
       0.234   -4.7033611    2.2852675   -2.4180935    1.5357981 -0.030263581 
       0.236   -4.6900499    2.2786742   -2.4113756    1.5313671 -0.0092091458 
       0.238   -4.6767075     2.271657   -2.4050505    1.5266512  0.013042536 
        0.24   -4.6631829    2.2643301   -2.3988528    1.5217272  0.036549351 
       0.242   -4.6493069    2.2567959    -2.392511    1.5166639  0.061409857 
       0.244   -4.6363337    2.2491373   -2.3871964     1.511517  0.085721866 
       0.246   -4.6230126    2.2414241   -2.3815885    1.5063334   0.11116258 
       0.248   -4.6092561    2.2337026   -2.3755535    1.5011442   0.13777461 
        0.25   -4.5962635    2.2260072   -2.3702563    1.4959726   0.16379889 
       0.252   -4.5823542    2.2183641     -2.36399    1.4908361   0.19156631 
       0.254   -4.5691079    2.2107952   -2.3583126    1.4857495   0.21880373 
       0.256   -4.5558867    2.2033237   -2.3525631    1.4807283   0.24637804 
       0.258   -4.5429718    2.1959763   -2.3469955    1.4757905   0.27385697 
        0.26   -4.5302536    2.1887815   -2.3414721    1.4709553   0.30135569 
       0.262   -4.5180107     2.181766   -2.3362447    1.4662406   0.32843833 
       0.264   -4.5060059     2.174959   -2.3310469     1.461666   0.35539634 
       0.266   -4.4936068    2.1683895   -2.3252173     1.457251   0.38307879 
       0.268    -4.482012    2.1620874   -2.3199246    1.4530157   0.40976929 
        0.27   -4.4709756    2.1560731   -2.3149024    1.4489739   0.43578785 
       0.272   -4.4598427    2.1503554   -2.3094872    1.4451313   0.46202972 
       0.274   -4.4490122    2.1449445   -2.3040677    1.4414949   0.48791874 
       0.276   -4.4387449    2.1398474   -2.2988975    1.4380695   0.51307719 
       0.278   -4.4282556    2.1350674   -2.2931882    1.4348571   0.53859335 
        0.28   -4.4187183    2.1306089   -2.2881094    1.4318608   0.56282083 
       0.282   -4.4094708    2.1264641   -2.2830067    1.4290754   0.58668779 
       0.284   -4.3999633    2.1226099   -2.2773534    1.4264851   0.61097227 
       0.286   -4.3901627     2.119015   -2.2711477    1.4240692   0.63574757 
       0.288   -4.3807933    2.1156262   -2.2651671    1.4217918     0.660047 
        0.29   -4.3716493    2.1123712   -2.2592781    1.4196043   0.68421846 
       0.292   -4.3623828    2.1091623   -2.2532205    1.4174478   0.70881952 
       0.294   -4.3535478    2.1059038    -2.247644     1.415258   0.73315851 
       0.296    -4.344395    2.1025017   -2.2418933    1.4129716   0.75835657 
       0.298   -4.3348332    2.0988658   -2.2359673    1.4105281   0.78460166 
         0.3   -4.3246587     2.094922   -2.2297367    1.4078777   0.81221137 
       0.302   -4.3138226    2.0906205   -2.2232022    1.4049869   0.84125262 
       0.304   -4.3028284    2.0859453   -2.2168831     1.401845   0.87098257 
       0.306   -4.2910486    2.0809214   -2.2101272    1.3984687   0.90217894 
       0.308   -4.2789418     2.075616   -2.2033258    1.3949032   0.93406001 
        0.31   -4.2672728    2.0701386   -2.1971342    1.3912222   0.96536884 
       0.312   -4.2550157    2.0646409   -2.1903747    1.3875275   0.99728013 
       0.314   -4.2439252    2.0593142    -2.184611    1.3839477    1.0270811 
       0.316   -4.2329108    2.0543743   -2.1785365    1.3806279    1.0559656 
       0.318   -4.2219418    2.0500559   -2.1718859    1.3777257    1.0836471 
        0.32   -4.2119118    2.0466001   -2.1653117    1.3754033    1.1085701 
       0.322   -4.2030416    2.0442375   -2.1588041    1.3738155    1.1301362 
       0.324   -4.1956598    2.0431684   -2.1524914     1.373097    1.1476438 
       0.326    -4.189653    2.0435457   -2.1461073    1.3733506    1.1610635 
       0.328   -4.1849857    2.0454709   -2.1395149    1.3746444    1.1703389 
        0.33   -4.1816955    2.0489842   -2.1327113    1.3770055    1.1754005 
       0.332   -4.1797445    2.0540539   -2.1256906    1.3804126    1.1763698 
       0.334   -4.1791615      2.06058   -2.1185815    1.3847984    1.1733617 
       0.336   -4.1804399    2.0684067   -2.1120331    1.3900583    1.1659329 
       0.338   -4.1827237    2.0773262   -2.1053975    1.3960526    1.1555593 
        0.34     -4.18589      2.08709   -2.0987999    1.4026143    1.1427588 
       0.342   -4.1894085     2.097424   -2.0919846    1.4095591    1.1286399 
       0.344   -4.1923568    2.1080445   -2.0843123    1.4166966    1.1148623 
       0.346   -4.1960176     2.118666   -2.0773516    1.4238347    1.1000543 
       0.348   -4.1983052    2.1290177   -2.0692875    1.4307915    1.0874376 
        0.35   -4.2005552    2.1388555   -2.0616998    1.4374029    1.0755084 
       0.352   -4.2016554    2.1479694    -2.053686    1.4435278    1.0660651 
       0.354   -4.2023672    2.1561975   -2.0461697    1.4490574    1.0582885 
       0.356   -4.2020639    2.1634161   -2.0386478    1.4539087    1.0531958 
       0.358   -4.2002848    2.1695435   -2.0307413    1.4580265    1.0515154 
        0.36    -4.197394    2.1745403   -2.0228538    1.4613846    1.0527916 
       0.362   -4.1939273    2.1784106   -2.0155167    1.4639856    1.0562816 
       0.364   -4.1890288    2.1811991   -2.0078297    1.4658596    1.0630866 
       0.366    -4.183307     2.182987   -2.0003201    1.4670611    1.0722523 
       0.368    -4.176521    2.1839128   -1.9926082    1.4676833    1.0839302 
        0.37    -4.169502    2.1841565   -1.9853455    1.4678471    1.0967497 
       0.372   -4.1615632    2.1839406   -1.9776226     1.467702    1.1113464 
       0.374   -4.1541616    2.1835439   -1.9706176    1.4674354    1.1253982 
       0.376   -4.1469517    2.1832711   -1.9636806    1.4672521    1.1390053 
       0.378   -4.1399818    2.1834331   -1.9565487    1.4673609    1.1517299 
        0.38   -4.1338058    2.1843275   -1.9494783     1.467962    1.1624805 
       0.382     -4.12854    2.1862028   -1.9423372    1.4692223    1.1708215 
       0.384   -4.1246198    2.1892372   -1.9353826    1.4712616     1.175971 
       0.386   -4.1222694    2.1935282   -1.9287412    1.4741453    1.1775384 
       0.388   -4.1210928    2.1990809   -1.9220118     1.477877    1.1760797 
        0.39   -4.1212732    2.2058165   -1.9154567    1.4824036    1.1714699 
       0.392   -4.1225229    2.2135815   -1.9089414     1.487622    1.1643162 
       0.394   -4.1250184    2.2221604    -1.902858    1.4933874    1.1546759 
       0.396   -4.1278349    2.2312842   -1.8965507     1.499519     1.144149 
       0.398   -4.1304178     2.240653   -1.8897648    1.5058152    1.1338609 
         0.4   -4.1336407    2.2499651   -1.8836755    1.5120733    1.1230073 
       0.402   -4.1361904    2.2589418   -1.8772486    1.5181061    1.1137049 
       0.404   -4.1378425    2.2673545    -1.870488    1.5237597    1.1065392 
       0.406   -4.1385734    2.2750407   -1.8635328    1.5289252    1.1017445 
       0.408   -4.1392232    2.2819148   -1.8573083    1.5335449    1.0983024 
        0.41   -4.1391277    2.2879601   -1.8511676    1.5376076    1.0971317 
       0.412   -4.1366463    2.2932224   -1.8434239    1.5411441    1.1003892 
       0.414   -4.1348727    2.2977872   -1.8370855    1.5442118    1.1038004 
       0.416   -4.1326211    2.3017652   -1.8308559    1.5468852    1.1088202 
       0.418   -4.1301411    2.3052742   -1.8248668    1.5492434    1.1149603 
        0.42   -4.1274147    2.3084226   -1.8189921    1.5513593    1.1220951 
       0.422   -4.1249343    2.3113077   -1.8136267    1.5532982    1.1294286 
       0.424   -4.1229102    2.3140123   -1.8088979    1.5551158    1.1365611 
       0.426   -4.1198505    2.3166061   -1.8032443     1.556859    1.1453895 
       0.428   -4.1172438    2.3191447   -1.7980991     1.558565    1.1538193 
        0.43   -4.1150146    2.3216821   -1.7933325    1.5602702     1.161864 
       0.432   -4.1125623    2.3242718   -1.7882905    1.5620107    1.1702486 
       0.434   -4.1100668    2.3269616   -1.7831053    1.5638182    1.1786606 
       0.436   -4.1087329    2.3297823   -1.7789506    1.5657139    1.1854277 
       0.438   -4.1070071    2.3327457   -1.7742615    1.5677054    1.1925826 
        0.44   -4.1051537    2.3358571   -1.7692966    1.5697964    1.1997485 
       0.442   -4.1043423    2.3391087   -1.7652336    1.5719817    1.2053602 
       0.444   -4.1028482    2.3424726   -1.7603756    1.5742423    1.2117313 
       0.446   -4.1011582    2.3459178   -1.7552404    1.5765577    1.2182299 
       0.448   -4.1010697    2.3494096   -1.7516601    1.5789043    1.2224772 
        0.45   -4.1003365    2.3529202   -1.7474163    1.5812636    1.2274819 
       0.452   -4.1002544    2.3564423   -1.7438121    1.5836306    1.2315197 
       0.454   -4.1000403    2.3599714    -1.740069    1.5860023    1.2356222 
       0.456    -4.099695    2.3635085   -1.7361866    1.5883794    1.2397683 
       0.458   -4.1000078    2.3670571   -1.7329506    1.5907642    1.2428928 
        0.46   -4.1000597    2.3706072   -1.7294525      1.59315    1.2462204 
       0.462   -4.1004737    2.3741288   -1.7263449    1.5955167    1.2489555 
       0.464   -4.1006691    2.3775613   -1.7231078    1.5978234    1.2519413 
       0.466   -4.1012074    2.3808089   -1.7203984     1.600006     1.254539 
       0.468   -4.1016925    2.3837402   -1.7179522     1.601976    1.2574068 
        0.47   -4.1011977    2.3862143   -1.7149834    1.6036386    1.2619184 
       0.472   -4.1007786     2.388099   -1.7126796    1.6049052      1.26681 
       0.474   -4.0992731    2.3892821    -1.709991    1.6057003    1.2737264 
       0.476    -4.098187    2.3896978   -1.7084892    1.6059797    1.2807348 
       0.478   -4.0959308    2.3893258   -1.7066049    1.6057297    1.2899492 
        0.48   -4.0930542    2.3881877   -1.7048665    1.6049648    1.3005891 
       0.482   -4.0887135    2.3863578   -1.7023557    1.6037351    1.3136719 
       0.484   -4.0848488    2.3839417   -1.7009071    1.6021114    1.3264916 
       0.486   -4.0801412    2.3810595   -1.6990816    1.6001744    1.3406226 
       0.488   -4.0756413    2.3778518   -1.6977895    1.5980187    1.3544993 
        0.49   -4.0707027     2.374454   -1.6962487    1.5957352    1.3688001 
       0.492   -4.0659595     2.370984   -1.6949755    1.5934032    1.3825236 
       0.494   -4.0616387    2.3675412   -1.6940975    1.5910895    1.3952321 
       0.496   -4.0574256     2.364207   -1.6932186    1.5888488    1.4072345 
       0.498   -4.0536394     2.361041   -1.6925984    1.5867211    1.4180393 
         0.5   -4.0503041    2.3580733   -1.6922308    1.5847267    1.4275729 
       0.502   -4.0467723    2.3553107   -1.6914616    1.5828701    1.4366703 
       0.504    -4.044595    2.3527445   -1.6918505    1.5811455    1.4432913 
       0.506   -4.0418029    2.3503656   -1.6914373    1.5795468     1.450037 
       0.508   -4.0398251    2.3481715   -1.6916537    1.5780722    1.4550382 
        0.51    -4.037756    2.3461748   -1.6915812    1.5767304    1.4594841 
       0.512   -4.0353704     2.344412   -1.6909583    1.5755457      1.46365 
       0.514   -4.0341582    2.3429383   -1.6912199    1.5745553    1.4655347 
       0.516    -4.033671    2.3418315   -1.6918395    1.5738115    1.4656599 
       0.518   -4.0332249    2.3411897   -1.6920352    1.5733802    1.4648421 
        0.52   -4.0330468    2.3411121   -1.6919347     1.573328    1.4627048 
       0.522   -4.0346564    2.3416809   -1.6929755    1.5737103    1.4572032 
       0.524   -4.0365245     2.342937   -1.6935875    1.5745544    1.4503301 
       0.526   -4.0398131    2.3448633   -1.6949498     1.575849    1.4406253 
       0.528   -4.0428602    2.3473659   -1.6954943    1.5775308    1.4304019 
        0.53   -4.0465397    2.3502713   -1.6962684    1.5794834    1.4187438 
       0.532   -4.0503509    2.3533416   -1.6970093    1.5815468    1.4066099 
       0.534   -4.0545145    2.3562718   -1.6982427     1.583516    1.3940641 
       0.536   -4.0580495    2.3587335    -1.699316    1.5851704    1.3827605 
       0.538   -4.0605039    2.3604037   -1.7001002    1.5862928    1.3736492 
        0.54   -4.0626303     2.360989   -1.7016413    1.5866862    1.3660618 
       0.542    -4.064208    2.3602674   -1.7039406    1.5862012    1.3605307 
       0.544   -4.0633889    2.3580857   -1.7053032     1.584735    1.3596081 
       0.546   -4.0618064    2.3543759   -1.7074305    1.5822419    1.3612133 
       0.548   -4.0589546    2.3491573   -1.7097973    1.5787347    1.3659456 
        0.55   -4.0540129    2.3425236   -1.7114893    1.5742766    1.3747103 
       0.552   -4.0480599    2.3346415   -1.7134184    1.5689795    1.3858626 
       0.554   -4.0410609    2.3257403   -1.7153206    1.5629975    1.3991375 
       0.556   -4.0339302    2.3160862   -1.7178439    1.5565096    1.4129889 
       0.558   -4.0261662    2.3059706   -1.7201956    1.5497114    1.4276756 
        0.56   -4.0174261    2.2957062   -1.7217199    1.5428133    1.4432418 
       0.562    -4.009572    2.2855953   -1.7239768    1.5360183    1.4568772 
       0.564     -4.00301    2.2759252   -1.7270848    1.5295196     1.467677 
       0.566   -3.9968312    2.2669688   -1.7298625    1.5235005    1.4764692 
       0.568   -3.9911366    2.2589679   -1.7321687    1.5181236     1.482816 
        0.57   -3.9869102    2.2521287   -1.7347815    1.5135274     1.485194 
       0.572   -3.9841711    2.2466104   -1.7375607    1.5098188    1.4833909 
       0.574   -3.9830125    2.2425123   -1.7405002    1.5070647    1.4771714 
       0.576   -3.9829449     2.239872   -1.7430728    1.5052904    1.4671343 
       0.578   -3.9843262    2.2386605   -1.7456657    1.5044762    1.4528741 
        0.58   -3.9875714    2.2387751   -1.7487963    1.5045532    1.4339988 
       0.582   -3.9916027     2.240055   -1.7515476    1.5054133    1.4121199 
       0.584   -3.9965896    2.2422845   -1.7543051    1.5069117    1.3873093 
       0.586   -4.0030575    2.2452039   -1.7578536    1.5088736    1.3592284 
       0.588   -4.0083803    2.2485407   -1.7598396     1.511116    1.3316133 
        0.59   -4.0150244    2.2520161   -1.7630083    1.5134517    1.3016606 
       0.592   -4.0218139    2.2553685   -1.7664455    1.5157046    1.2712265 
       0.594   -4.0278728    2.2583734   -1.7694994     1.517724    1.2417491 
       0.596   -4.0334078    2.2608427   -1.7725651    1.5193836    1.2132313 
       0.598   -4.0378854    2.2626335   -1.7752519     1.520587     1.186574 
         0.6   -4.0417294    2.2636451   -1.7780843    1.5212668    1.1613995 
       0.602   -4.0451424    2.2638141   -1.7813283    1.5213805    1.1375616 
       0.604   -4.0474478    2.2631167   -1.7843311    1.5209118    1.1159909 
       0.606   -4.0489171    2.2615618   -1.7873553    1.5198668    1.0963624 
       0.608   -4.0497236    2.2591947   -1.7905289     1.518276    1.0784431 
        0.61   -4.0491612    2.2560864   -1.7930748    1.5161871    1.0630886 
       0.612   -4.0482189    2.2523181   -1.7959008    1.5136546    1.0489618 
       0.614   -4.0466075    2.2479925    -1.798615    1.5107477    1.0363363 
       0.616   -4.0448287     2.243223   -1.8016058    1.5075423    1.0244631 
       0.618   -4.0422154    2.2381272   -1.8040882    1.5041178     1.014072 
        0.62   -4.0395422    2.2328303   -1.8067119     1.500558    1.0040606 
       0.622   -4.0378321    2.2274466   -1.8103855    1.4969399   0.99301844 
       0.624   -4.0353503    2.2220731   -1.8132772    1.4933287   0.98304906 
       0.626   -4.0334829    2.2167906   -1.8166922    1.4897787   0.97231272 
       0.628   -4.0315002    2.2116613   -1.8198389    1.4863315   0.96167988 
        0.63   -4.0303568     2.206728   -1.8236288    1.4830161   0.94991447 
       0.632   -4.0287613    2.2020081   -1.8267532    1.4798441   0.93865274 
       0.634   -4.0276154    2.1974932   -1.8301222    1.4768099   0.92677932 
       0.636   -4.0255752    2.1931544   -1.8324208    1.4738941   0.91604627 
       0.638   -4.0248153    2.1889417   -1.8358737    1.4710629    0.9037771 
        0.64   -4.0242146     2.184787   -1.8394276    1.4682708   0.89148153 
       0.642   -4.0232993     2.180612   -1.8426873     1.465465   0.87986346 
       0.644   -4.0221101    2.1763293   -1.8457808    1.4625869   0.86898534 
       0.646     -4.02081    2.1718399   -1.8489701    1.4595698   0.85875622 
       0.648   -4.0186485    2.1670527   -1.8515958    1.4563526   0.85023712 
        0.65    -4.016713    2.1618829   -1.8548301    1.4528783   0.84216545 
       0.652   -4.0141368    2.1562506   -1.8578862    1.4490932   0.83572493 
       0.654   -4.0108562    2.1500956   -1.8607606    1.4449567   0.83107007 
       0.656   -4.0074807    2.1433793   -1.8641015     1.440443   0.82748694 
       0.658    -4.002942    2.1360833   -1.8668588    1.4355398   0.82634322 
        0.66   -3.9978877    2.1282053   -1.8696824    1.4302455   0.82681501 
       0.662   -3.9920787    2.1197721   -1.8723066     1.424578   0.82916354 
       0.664   -3.9853043    2.1108401   -1.8744642    1.4185753   0.83358554 
       0.666   -3.9789401    2.1014863   -1.8774538    1.4122892   0.83825982 
       0.668   -3.9720353    2.0918074   -1.8802279    1.4057845   0.84426132 
        0.67   -3.9644324     2.081915   -1.8825174    1.3991364   0.85165352 
       0.672   -3.9567617    2.0719261   -1.8848356    1.3924234   0.85950477 
       0.674   -3.9490093    2.0619571   -1.8870522    1.3857239   0.86769276 
       0.676   -3.9413972     2.052113   -1.8892842    1.3791082   0.87580984 
       0.678   -3.9329694     2.042485   -1.8904844    1.3726378   0.88494044 
        0.68   -3.9249617    2.0331413   -1.8918204    1.3663584   0.89345217 
       0.682     -3.91806     2.024124    -1.893936    1.3602984   0.90042633 
       0.684   -3.9107209    2.0154611   -1.8952598    1.3544765   0.90775485 
       0.686   -3.9039873    2.0071611   -1.8968262    1.3488986   0.91411484 
       0.688   -3.8970736    1.9992269   -1.8978467    1.3435665   0.92047423 
        0.69   -3.8905045    1.9916715    -1.898833    1.3384889   0.92616666 
       0.692   -3.8840383    1.9845174   -1.8995209     1.333681   0.93147088 
       0.694   -3.8782249    1.9778013   -1.9004236    1.3291675   0.93566314 
       0.696   -3.8722031    1.9715796   -1.9006235    1.3249863   0.93976624 
       0.698   -3.8670773    1.9659191   -1.9011582    1.3211822   0.94235126 
         0.7   -3.8623802    1.9608811   -1.9014991    1.3177964   0.94395164 
       0.702   -3.8582835    1.9565132   -1.9017703     1.314861   0.94432765 
       0.704   -3.8541536    1.9528344   -1.9013192    1.3123887   0.94427381 
       0.706   -3.8510007    1.9498242   -1.9011765    1.3103657   0.94258183 
       0.708   -3.8478539    1.9474283   -1.9004256    1.3087556   0.94054648 
        0.71   -3.8444964    1.9455636   -1.8989328    1.3075024   0.93856076 
       0.712    -3.841459    1.9441188   -1.8973402    1.3065315   0.93610978 
       0.714   -3.8383537    1.9429722   -1.8953815    1.3057609   0.93382544 
       0.716   -3.8359811    1.9420133   -1.8939677    1.3051165   0.93086428 
       0.718    -3.833327    1.9411493   -1.8921777    1.3045358   0.92861442 
        0.72   -3.8308424    1.9403119   -1.8905305     1.303973   0.92662454 
       0.722   -3.8278246    1.9394529   -1.8883717    1.3033958   0.92584031 
       0.724   -3.8245022    1.9385446   -1.8859576    1.3027853   0.92601996 
       0.726   -3.8206162     1.937591   -1.8830253    1.3021445   0.92749752 
       0.728   -3.8157989    1.9366234   -1.8791755    1.3014942   0.93071399 
        0.73   -3.8110093    1.9356868   -1.8753225    1.3008648   0.93444272 
       0.732   -3.8064343    1.9348401   -1.8715942    1.3002958   0.93838898 
       0.734   -3.8013654    1.9341614   -1.8672039    1.2998397   0.94334744 
       0.736   -3.7962804    1.9337404     -1.86254    1.2995567   0.94863424 
       0.738   -3.7924516    1.9336762   -1.8587754    1.2995136   0.95258041 
        0.74   -3.7885392    1.9340703   -1.8544689    1.2997784   0.95673402 
       0.742   -3.7841123    1.9350138   -1.8490984    1.3004125      0.96152 
       0.744   -3.7805604    1.9365956   -1.8439648    1.3014756   0.96513171 
       0.746   -3.7770423    1.9388863   -1.8381559     1.303015    0.9685215 
       0.748   -3.7737381     1.941938   -1.8318001    1.3050659   0.97140109 
        0.75   -3.7710836    1.9457927    -1.825291    1.3076564   0.97319572 
       0.752   -3.7690858    1.9504602   -1.8186257    1.3107931   0.97388003 
       0.754   -3.7674749    1.9559267   -1.8115481    1.3144669   0.97379592 
       0.756   -3.7662226    1.9621596    -1.804063    1.3186557   0.97301631 
       0.758   -3.7659193    1.9690933    -1.796826    1.3233154   0.97087457 
        0.76   -3.7658345    1.9766442   -1.7891903    1.3283899   0.96834628 
       0.762   -3.7656221    1.9847141    -1.780908    1.3338132   0.96594945 
       0.764   -3.7659712    1.9931968   -1.7727745     1.339514   0.96294175 
       0.766   -3.7662616     2.001982   -1.7642795     1.345418   0.96018921 
       0.768   -3.7666556    2.0109575   -1.7556981    1.3514499   0.95759216 
        0.77   -3.7668072     2.020017   -1.7467902    1.3575383    0.9556631 
       0.772   -3.7666375    2.0290645    -1.737573    1.3636186   0.95457013 
       0.774   -3.7663544    2.0380216   -1.7283328    1.3696381   0.95411145 
       0.776   -3.7659153    2.0468262   -1.7190891    1.3755552   0.95436821 
       0.778   -3.7653024    2.0554347   -1.7098678    1.3813405   0.95536561 
        0.78     -3.76452    2.0638291   -1.7006909    1.3869819   0.95707996 
       0.782   -3.7630747    2.0720096   -1.6910651    1.3924796   0.96007071 
       0.784   -3.7620455    2.0799886   -1.6820568    1.3978418   0.96295296 
       0.786   -3.7600529     2.087794    -1.672259    1.4030873   0.96732728 
       0.788   -3.7584675    2.0954687   -1.6629988    1.4082451   0.97142444 
        0.79   -3.7563199    2.1030687   -1.6532512    1.4133526   0.97632462 
       0.792   -3.7540824     2.110649   -1.6434334    1.4184469   0.98134299 
       0.794   -3.7524846    2.1182667   -1.6342179    1.4235663    0.9854846 
       0.796   -3.7502962    2.1259795   -1.6243167    1.4287497   0.99015224 
       0.798   -3.7490172    2.1338302   -1.6151871    1.4340257   0.99343045 
         0.8   -3.7477781    2.1418495   -1.6059285     1.439415   0.99630711 
       0.802   -3.7472678    2.1500582   -1.5972096    1.4449316   0.99789426 
       0.804   -3.7471035    2.1584546   -1.5886489    1.4505743   0.99863057 
       0.806   -3.7476708    2.1670197   -1.5806511    1.4563305   0.99804547 
       0.808   -3.7480317    2.1757204   -1.5723112    1.4621777   0.99730503 
        0.81   -3.7487956    2.1845009   -1.5642947    1.4680785   0.99571339 
       0.812   -3.7504256     2.193295   -1.5571306    1.4739886   0.99277231 
       0.814   -3.7516791    2.2020302   -1.5496489     1.479859   0.99006613 
       0.816   -3.7526157    2.2106266   -1.5419891    1.4856362   0.98759528 
       0.818   -3.7538258    2.2190181   -1.5348077    1.4912756   0.98471342 
        0.82   -3.7552646    2.2271589   -1.5281057    1.4967466   0.98153601 
       0.822   -3.7565132    2.2350152   -1.5214981    1.5020263     0.978615 
       0.824   -3.7576828    2.2425655   -1.5151173    1.5071004   0.97584198 
       0.826   -3.7585089    2.2498037   -1.5087052    1.5119649   0.97355124 
       0.828   -3.7587294    2.2567344    -1.501995    1.5166226   0.97206725 
        0.83   -3.7591371    2.2633626   -1.4957745     1.521077   0.97043278 
       0.832   -3.7601236    2.2696905   -1.4904331    1.5253297   0.96817911 
       0.834   -3.7608984    2.2757166   -1.4851818    1.5293794   0.96627328 
       0.836   -3.7618441    2.2814305   -1.4804136    1.5332194   0.96426608 
       0.838   -3.7618998    2.2868218    -1.475078    1.5368426   0.96345916 
        0.84   -3.7617052    2.2918809   -1.4698243    1.5402426    0.9630997 
       0.842   -3.7618947    2.2965919   -1.4653027    1.5434086   0.96243896 
       0.844   -3.7617892    2.3009342    -1.460855    1.5463267   0.96231025 
       0.846   -3.7612375    2.3048927   -1.4563448     1.548987   0.96290785 
       0.848   -3.7610122    2.3084586   -1.4525536    1.5513835   0.96331186 
        0.85   -3.7601819    2.3116191   -1.4485628    1.5535075   0.96465763 
       0.852   -3.7597699    2.3143595   -1.4454104    1.5553491   0.96572327 
       0.854    -3.757932    2.3166649   -1.4412671    1.5568985   0.96874656 
       0.856   -3.7567301    2.3185169   -1.4382132    1.5581431   0.97125431 
       0.858   -3.7556163    2.3198968   -1.4357194    1.5590705   0.97391578 
        0.86   -3.7536645    2.3207964   -1.4328682     1.559675   0.97784757 
       0.862   -3.7512679    2.3212202   -1.4300476    1.5599598    0.9825641 
       0.864    -3.748829    2.3211878   -1.4276412    1.5599381   0.98754985 
       0.866   -3.7457325    2.3207391   -1.4249935    1.5596365   0.99349582 
       0.868   -3.7425524    2.3199334    -1.422619    1.5590951   0.99964229 
        0.87   -3.7394922    2.3188476   -1.4206446    1.5583653    1.0056626 
       0.872   -3.7361116    2.3175673   -1.4185443    1.5575049    1.0119972 
       0.874   -3.7327479    2.3161766   -1.4165713    1.5565703    1.0181548 
       0.876   -3.7299931    2.3147503   -1.4152429    1.5556117    1.0233514 
       0.878   -3.7264639    2.3133457   -1.4131182    1.5546678     1.029198 
        0.88   -3.7237532    2.3119911   -1.4117621    1.5537575    1.0337562 
       0.882    -3.721063    2.3106818   -1.4103812    1.5528776    1.0379843 
       0.884   -3.7186296    2.3093945   -1.4092352    1.5520124    1.0416276 
       0.886    -3.715233    2.3080918   -1.4071412     1.551137    1.0462023 
       0.888    -3.712762     2.306707    -1.406055    1.5502063    1.0495078 
        0.89   -3.7103473    2.3051557   -1.4051916    1.5491638    1.0526596 
       0.892   -3.7071233    2.3033601   -1.4037632    1.5479571    1.0567796 
       0.894   -3.7037829    2.3012381   -1.4025448     1.546531    1.0611244 
       0.896   -3.6997196    2.2987007    -1.401019    1.5448257    1.0665016 
       0.898   -3.6962709    2.2956595   -1.4006114    1.5427819    1.0713829 
         0.9   -3.6923127    2.2920383   -1.4002744    1.5403483    1.0771733 
       0.902   -3.6869967     2.287777   -1.3992197    1.5374846    1.0849244 
       0.904   -3.6809365    2.2828358   -1.3981008    1.5341638    1.0939059 
       0.906   -3.6745057    2.2772067    -1.397299    1.5303809     1.103634 
       0.908   -3.6678695    2.2709252   -1.3969442    1.5261594    1.1138232 
        0.91   -3.6603318    2.2640879   -1.3962439    1.5215644    1.1251591 
       0.912   -3.6525681    2.2568551    -1.395713    1.5167037    1.1366197 
       0.914   -3.6449317    2.2494553   -1.3954764    1.5117307    1.1474922 
       0.916   -3.6375897    2.2421938   -1.3953959    1.5068507    1.1572103 
       0.918   -3.6302633    2.2354489   -1.3948145    1.5023178    1.1656709 
        0.92    -3.624426    2.2296564   -1.3947696     1.498425    1.1706306 
       0.922   -3.6202835    2.2252851   -1.3949984    1.4954873    1.1713417 
       0.924   -3.6167224    2.2227947   -1.3939278    1.4938136    1.1686552 
       0.926   -3.6167436    2.2225775   -1.3941661    1.4936677    1.1585945 
       0.928   -3.6185321    2.2249122     -1.39362    1.4952367    1.1430484 
        0.93   -3.6232673    2.2299325   -1.3933348    1.4986105    1.1205066 
       0.932   -3.6303898     2.237607   -1.3927828    1.5037681    1.0917141 
       0.934   -3.6403588    2.2477416   -1.3926172     1.510579     1.056381 
       0.936   -3.6525844     2.260006   -1.3925784    1.5188212    1.0156169 
       0.938    -3.666508    2.2739731   -1.3925349    1.5282077   0.97060542 
        0.94   -3.6815229    2.2891588   -1.3923641    1.5384131    0.9226555 
       0.942   -3.6975259    2.3050598   -1.3924661    1.5490993   0.87250706 
       0.944   -3.7133737     2.321176   -1.3921977    1.5599301   0.82212958 
       0.946   -3.7286096    2.3370377   -1.3915719    1.5705899   0.77264866 
       0.948   -3.7436087    2.3522242   -1.3913845    1.5807958   0.72416004 
        0.95   -3.7576198    2.3663585   -1.3912613    1.5902947   0.67803545 
       0.952   -3.7704671    2.3791196   -1.3913475    1.5988707   0.63489851 
       0.954    -3.781644    2.3902517   -1.3913923    1.6063519    0.5956981 
       0.956   -3.7905786    2.3995581   -1.3910205    1.6126063   0.56138794 
       0.958   -3.7977991    2.4068993   -1.3908998    1.6175399   0.53154524 
        0.96   -3.8042763    2.4121955   -1.3920808    1.6210991   0.50515364 
       0.962   -3.8079146    2.4154276    -1.392487    1.6232712   0.48475981 
       0.964   -3.8099225    2.4166275   -1.3932949    1.6240776   0.46892706 
       0.966   -3.8101283    2.4158778   -1.3942505    1.6235738   0.45778731 
       0.968     -3.80945    2.4133142   -1.3961358    1.6218509   0.45012361 
        0.97   -3.8062405    2.4091127   -1.3971278    1.6190274   0.44769609 
       0.972   -3.8016246    2.4034887   -1.3981358    1.6152478   0.44893707 
       0.974   -3.7962421    2.3966934   -1.3995487     1.610681   0.45281494 
       0.976   -3.7902336    2.3890015   -1.4012322    1.6055117   0.45885956 
       0.978   -3.7840179    2.3807054   -1.4033125    1.5999364   0.46625454 
        0.98   -3.7769695    2.3721016   -1.4048679    1.5941543   0.47540861 
       0.982   -3.7698927    2.3634771   -1.4064156    1.5883583   0.48504128 
       0.984   -3.7642318    2.3551095   -1.4091222    1.5827349   0.49313097 
       0.986   -3.7589351    2.3472589   -1.4116763    1.5774589   0.50062567 
       0.988   -3.7535834    2.3401625   -1.4134209    1.5726899   0.50776041 
        0.99   -3.7496719    2.3340174   -1.4156545    1.5685601    0.5125524 
       0.992   -3.7473491     2.328973   -1.4183761      1.56517   0.51466471 
       0.994   -3.7457899    2.3251207   -1.4206692    1.5625811   0.51497865 
       0.996   -3.7456618    2.3224744   -1.4231874    1.5608027   0.51269494 
       0.998   -3.7470203    2.3209609   -1.4260594    1.5597855    0.5078273 
           1   -3.7494499    2.3204236   -1.4290263    1.5594245   0.50104055 
       1.002   -3.7525828    2.3206275   -1.4319553    1.5595615   0.49303186 
       1.004   -3.7561146     2.321264   -1.4348506    1.5599893   0.48448878 
       1.006   -3.7600949    2.3219942   -1.4381007    1.5604799   0.47572588 
       1.008   -3.7640537    2.3224757   -1.4415781    1.5608035   0.46767959 
        1.01   -3.7675378    2.3223857   -1.4451521    1.5607431   0.46124196 
       1.012    -3.770011    2.3214489   -1.4485621    1.5601135   0.45735168 
       1.014   -3.7721762    2.3194577   -1.4527184    1.5587754   0.45542174 
       1.016   -3.7727312    2.3162814   -1.4564498    1.5566407   0.45715341 
       1.018   -3.7715987    2.3118502   -1.4597485    1.5536628   0.46272527 
        1.02   -3.7696841    2.3061555   -1.4635286    1.5498357   0.47108802 
       1.022   -3.7666356    2.2992439   -1.4673917    1.5451908    0.4826138 
       1.024   -3.7621475    2.2912038   -1.4709437    1.5397875   0.49757166 
       1.026   -3.7576322    2.2821501   -1.4754821     1.533703   0.51417127 
       1.028   -3.7517747    2.2722123   -1.4795624    1.5270244   0.53380937 
        1.03   -3.7453558    2.2615267   -1.4838291    1.5198432     0.555406 
       1.032   -3.7378455    2.2502241   -1.4876214    1.5122474   0.57942643 
       1.034   -3.7303914    2.2384169   -1.4919745    1.5043125   0.60437192 
       1.036   -3.7221506    2.2261877   -1.4959629    1.4960939   0.63110415 
       1.038   -3.7138218    2.2135924   -1.5002294    1.4876293   0.65869364 
        1.04    -3.705819     2.200662   -1.5051569    1.4789395   0.68656816 
       1.042   -3.6965751    2.1874074   -1.5091677    1.4700319   0.71650337 
       1.044   -3.6871231    2.1738291    -1.513294    1.4609066   0.74722213 
       1.046   -3.6774592    2.1599331   -1.5175261     1.451568   0.77866381 
       1.048   -3.6673205    2.1457358   -1.5215846    1.4420268    0.8110538 
        1.05   -3.6566089    2.1312781   -1.5253307    1.4323106   0.84439445 
       1.052   -3.6463094    2.1166421   -1.5296672    1.4224745   0.87738007 
       1.054   -3.6360066    2.1019439   -1.5340627    1.4125967   0.91031111 
       1.056   -3.6250575    2.0873363   -1.5377212    1.4027798   0.94371554 
       1.058   -3.6142967    2.0730075   -1.5412892    1.3931502   0.97634743 
        1.06   -3.6040603    2.0591709   -1.5448894    1.3838514    1.0075192 
       1.062   -3.5944445    2.0460637   -1.5483807    1.3750428    1.0368108 
       1.064   -3.5860846    2.0339336    -1.552151    1.3668909    1.0631633 
       1.066   -3.5785675    2.0230219   -1.5555455    1.3595578     1.086758 
       1.068   -3.5722505    2.0135627   -1.5586877    1.3532007    1.1068924 
        1.07   -3.5676019    2.0057655   -1.5618364    1.3479607    1.1227668 
       1.072   -3.5647894    1.9998012   -1.5649882    1.3439524    1.1339822 
       1.074   -3.5640717    1.9957946   -1.5682771    1.3412598    1.1400932 
       1.076   -3.5648612     1.993812   -1.5710492    1.3399274    1.1417235 
       1.078   -3.5687236    1.9938528   -1.5748708    1.3399549    1.1370456 
        1.08   -3.5731005    1.9958351   -1.5772655     1.341287    1.1291691 
       1.082   -3.5794035    1.9996019   -1.5798015    1.3438185    1.1166184 
       1.084   -3.5880658    2.0049356   -1.5831301     1.347403    1.0991509 
       1.086   -3.5969879    2.0115622   -1.5854256    1.3518563    1.0795711 
       1.088   -3.6070384    2.0191681   -1.5878703    1.3569678    1.0572377 
        1.09   -3.6176274    2.0274211   -1.5902063    1.3625142    1.0332536 
       1.092   -3.6278948    2.0359859   -1.5919089    1.3682701    1.0090442 
       1.094   -3.6380502    2.0445429   -1.5935073    1.3740207   0.98476335 
       1.096    -3.648197    2.0528038   -1.5953931    1.3795725    0.9606603 
       1.098    -3.657825    2.0605184   -1.5973066     1.384757   0.93766416 
         1.1   -3.6666032    2.0674797   -1.5991236    1.3894353   0.91644279 
       1.102   -3.6739832    2.0735329   -1.6004502    1.3935033   0.89786782 
       1.104   -3.6801266    2.0785701   -1.6015565    1.3968885   0.88191997 
       1.106   -3.6853592    2.0825252    -1.602834    1.3995465   0.86833288 
       1.108   -3.6886138    2.0853762   -1.6032376    1.4014625   0.85843057 
        1.11    -3.691857    2.0871305   -1.6047265    1.4026415   0.84992087 
       1.112   -3.6935623    2.0878278   -1.6057345    1.4031101   0.84458329 
       1.114   -3.6941864    2.0875369   -1.6066496    1.4029146   0.84183413 
       1.116   -3.6939444     2.086341   -1.6076034    1.4021109   0.84134697 
       1.118   -3.6931918    2.0843369   -1.6088548    1.4007641    0.8426112 
        1.12   -3.6912438    2.0816262   -1.6096177    1.3989423   0.84632471 
       1.122    -3.688464     2.078315    -1.610149    1.3967171   0.85194361 
       1.124   -3.6849581    2.0745161   -1.6104419    1.3941641   0.85922321 
       1.126    -3.680833    2.0703366   -1.6104964    1.3913553   0.86791163 
       1.128   -3.6763167    2.0658813   -1.6104354    1.3883611   0.87761168 
        1.13   -3.6713792    2.0612567   -1.6101225    1.3852532   0.88822772 
       1.132   -3.6666395    2.0565683   -1.6100712    1.3821024   0.89889754 
       1.134   -3.6618178    2.0519305   -1.6098873    1.3789855   0.90981532 
       1.136   -3.6571529    2.0474616   -1.6096912    1.3759823   0.92056146 
       1.138   -3.6523661    2.0432798   -1.6090864    1.3731719   0.93131844 
        1.14   -3.6486223    2.0395122   -1.6091101    1.3706399   0.94056897 
       1.142   -3.6448741     2.036293   -1.6085811    1.3684765   0.94939692 
       1.144    -3.641252    2.0337605   -1.6074916    1.3667745   0.95750309 
       1.146   -3.6384047    2.0320477    -1.606357    1.3656234   0.96398498 
       1.148   -3.6360567    2.0312776   -1.6047791    1.3651059   0.96904074 
        1.15   -3.6352249    2.0315595   -1.6036654    1.3652953   0.97137404 
       1.152   -3.6348031    2.0329701    -1.601833    1.3662433   0.97221909 
       1.154   -3.6352171    2.0355482   -1.5996689    1.3679759   0.97105271 
       1.156   -3.6367143    2.0392898   -1.5974244    1.3704905   0.96761709 
       1.158   -3.6393641    2.0441391    -1.595225    1.3737494   0.96192158 
        1.16   -3.6425293    2.0499872   -1.5925421    1.3776796   0.95486413 
       1.162   -3.6469611    2.0566787   -1.5902824    1.3821765   0.94575945 
       1.164   -3.6514141    2.0640199   -1.5873942    1.3871101    0.9363081 
       1.166   -3.6563196    2.0717961   -1.5845235    1.3923361   0.92625975 
       1.168   -3.6610692    2.0797952    -1.581274    1.3977118   0.91659313 
        1.17   -3.6653319    2.0878195   -1.5775124    1.4031045   0.90794787 
       1.172   -3.6698358     2.095693   -1.5741428    1.4083959   0.89968644 
       1.174   -3.6735253    2.1032759   -1.5702494    1.4134919   0.89322995 
       1.176   -3.6766999    2.1104766   -1.5662233     1.418331   0.88835961 
       1.178   -3.6785287    2.1172536   -1.5612751    1.4228855   0.88613631 
        1.18   -3.6804502    2.1236062    -1.556844    1.4271547   0.88489767 
       1.182    -3.681329    2.1295769   -1.5517521    1.4311673   0.88596238 
       1.184   -3.6812461    2.1352475   -1.5459986    1.4349782   0.88917849 
       1.186   -3.6806966    2.1407258   -1.5399708    1.4386598   0.89387443 
       1.188   -3.6798113    2.1461392   -1.5336721    1.4422978   0.89978922 
        1.19   -3.6789804    2.1516148   -1.5273656    1.4459777   0.90635005 
       1.192   -3.6780549    2.1572666   -1.5207884    1.4497759   0.91362798 
       1.194   -3.6769948    2.1631834   -1.5138115    1.4537523   0.92159107 
       1.196   -3.6762471    2.1694163   -1.5068308     1.457941   0.92967262 
       1.198   -3.6752958    2.1759682   -1.4993276    1.4623442   0.93848809 
         1.2    -3.674613    2.1827876   -1.4918253    1.4669272   0.94754276 
       1.202   -3.6737086    2.1897656    -1.483943    1.4716167   0.95752468 
       1.204   -3.6724291    2.1967469   -1.4756823    1.4763084   0.96877131 
       1.206    -3.670335    2.2035395   -1.4667955    1.4808733    0.9819893 
       1.208    -3.667874    2.2099278   -1.4579463    1.4851665   0.99685783 
        1.21   -3.6648326    2.2156893   -1.4491433    1.4890385    1.0138355 
       1.212    -3.660494    2.2206118   -1.4398822    1.4923466     1.033959 
       1.214   -3.6554657    2.2245057     -1.43096    1.4949635    1.0566766 
       1.216   -3.6485647     2.227212   -1.4213526    1.4967823    1.0835026 
       1.218   -3.6402101    2.2286101      -1.4116    1.4977218    1.1140136 
        1.22   -3.6303445    2.2286216   -1.4017229    1.4977296    1.1482877 
       1.222   -3.6193567    2.2272255   -1.3921313    1.4967913    1.1858178 
       1.224   -3.6076957    2.2244578   -1.3832379    1.4949313    1.2259605 
       1.226   -3.5935131     2.220408   -1.3731051    1.4922096    1.2707054 
       1.228   -3.5784145    2.2152263   -1.3631882    1.4887274    1.3179033 
        1.23   -3.5618531    2.2091333   -1.3527198    1.4846326    1.3678706 
       1.232   -3.5451771    2.2024141    -1.342763     1.480117    1.4186234 
       1.234   -3.5276958     2.195408   -1.3322878    1.4754086    1.4705153 
       1.236   -3.5108565    2.1885036   -1.3223529    1.4707686    1.5213323 
       1.238   -3.4944534    2.1821325   -1.3123209    1.4664869    1.5707808 
        1.24   -3.4795871    2.1767337   -1.3028534    1.4628587    1.6170235 
       1.242   -3.4652461    2.1727217   -1.2925244    1.4601624    1.6607355 
       1.244    -3.452719    2.1704589   -1.2822602    1.4586417    1.6999449 
       1.246   -3.4430805    2.1702269   -1.2728536    1.4584858    1.7330288 
       1.248   -3.4346751    2.1721975   -1.2624777    1.4598101    1.7617024 
        1.25   -3.4295107    2.1764089   -1.2531018    1.4626404    1.7835022 
       1.252   -3.4260761     2.182777   -1.2432991    1.4669201    1.8002497 
       1.254   -3.4246982    2.1911021   -1.2335961    1.4725148    1.8117271 
       1.256   -3.4257439    2.2010911   -1.2246528    1.4792279    1.8177645 
       1.258   -3.4277088    2.2124056   -1.2153032    1.4868317    1.8204578 
        1.26   -3.4306507    2.2246939   -1.2059568      1.49509    1.8200839 
       1.262   -3.4343797    2.2376259   -1.1967538    1.5037808    1.8171958 
       1.264   -3.4388938    2.2509234   -1.1879704    1.5127174    1.8120829 
       1.266   -3.4433414    2.2643699   -1.1789715    1.5217539    1.8059734 
       1.268     -3.44877    2.2778194   -1.1709507    1.5307926    1.7977981 
        1.27   -3.4536703    2.2911842   -1.1624861    1.5397743    1.7894368 
       1.272    -3.459321    2.3044198   -1.1549011    1.5486692    1.7794457 
       1.274   -3.4644165    2.3175142   -1.1469022    1.5574693    1.7693994 
       1.276   -3.4706647    2.3304618   -1.1402029    1.5661706     1.757327 
       1.278   -3.4755732    2.3432394   -1.1323338    1.5747577    1.7462086 
        1.28   -3.4810542    2.3557924   -1.1252617    1.5831938     1.733874 
       1.282   -3.4867747    2.3680405   -1.1187342    1.5914251    1.7208306 
       1.284   -3.4924942    2.3798642     -1.11263    1.5993711    1.7075111 
       1.286    -3.497545    2.3911095   -1.1064355    1.6069284    1.6948752 
       1.288   -3.5021527    2.4016087    -1.100544    1.6139843    1.6828529 
        1.29   -3.5057522    2.4111839   -1.0945683    1.6204193    1.6723047 
       1.292   -3.5093551    2.4196668   -1.0896883    1.6261202    1.6622308 
       1.294   -3.5111286    2.4269157   -1.0842129    1.6309917     1.654948 
       1.296   -3.5122595    2.4328162   -1.0794433    1.6349572    1.6491962 
       1.298   -3.5131922    2.4372878   -1.0759045    1.6379622    1.6445449 
         1.3   -3.5128446    2.4402917    -1.072553     1.639981     1.642308 
       1.302   -3.5114782    2.4418306   -1.0696476    1.6410152    1.6421768 
       1.304   -3.5084809    2.4419494   -1.0665315     1.641095    1.6448186 
       1.306    -3.503935    2.4407343   -1.0632007    1.6402784    1.6500421 
       1.308    -3.499001    2.4383093   -1.0606916    1.6386487    1.6563517 
        1.31   -3.4933112    2.4348341   -1.0584772    1.6363132    1.6640025 
       1.312   -3.4869168    2.4304975   -1.0564194    1.6333988    1.6727252 
       1.314   -3.4804132    2.4255163   -1.0548969    1.6300513    1.6815884 
       1.316   -3.4736334    2.4201245   -1.0535089    1.6264278    1.6905334 
       1.318   -3.4664225    2.4145692   -1.0518533    1.6226943     1.699481 
        1.32   -3.4590249    2.4091022   -1.0499228    1.6190203    1.7078922 
       1.322   -3.4529573    2.4039498   -1.0490075    1.6155577    1.7137564 
       1.324   -3.4469773    2.3993133    -1.047664    1.6124417    1.7183155 
       1.326   -3.4417691    2.3953658   -1.0464032    1.6097889    1.7206093 
       1.328   -3.4386187    2.3922296   -1.0463891    1.6076811    1.7190294 
        1.33   -3.4358828     2.389971   -1.0459118    1.6061633    1.7154391 
       1.332   -3.4342248    2.3886028    -1.045622    1.6052438    1.7090735 
       1.334   -3.4333325    2.3880843   -1.0452482    1.6048954    1.7003592 
       1.336   -3.4336342    2.3883306   -1.0453036    1.6050609     1.688909 
       1.338   -3.4355375    2.3892305   -1.0463069    1.6056657    1.6743998 
        1.34   -3.4378563    2.3906519   -1.0472044    1.6066209    1.6583823 
       1.342   -3.4408382    2.3924548   -1.0483834    1.6078325     1.640744 
       1.344   -3.4434402    2.3945096   -1.0489306    1.6092134    1.6228631 
       1.346   -3.4462028    2.3967083   -1.0494945    1.6106911    1.6042568 
       1.348   -3.4496938    2.3989704   -1.0507233    1.6122113    1.5843817 
        1.35   -3.4537317    2.4012453   -1.0524864    1.6137401    1.5635274 
       1.352   -3.4570023    2.4035216   -1.0534807    1.6152699    1.5432633 
       1.354    -3.461476    2.4058166   -1.0556594    1.6168122    1.5213193 
       1.356   -3.4658863    2.4081698   -1.0577165    1.6183937      1.49915 
       1.358   -3.4701591    2.4106368   -1.0595223    1.6200516    1.4768104 
        1.36   -3.4750089    2.4132787   -1.0617302    1.6218271    1.4534344 
       1.362    -3.479981     2.416159    -1.063822    1.6237628      1.42951 
       1.364   -3.4860398    2.4193329   -1.0667069    1.6258958    1.4038959 
       1.366   -3.4912656    2.4228365   -1.0684291    1.6282503    1.3787959 
       1.368   -3.4976295    2.4266816   -1.0709479    1.6308344    1.3519458 
        1.37   -3.5052482    2.4308543   -1.0743939    1.6336386    1.3232554 
       1.372   -3.5122487    2.4353053   -1.0769434    1.6366299    1.2949611 
       1.374   -3.5201157    2.4399507    -1.080165    1.6397518    1.2654704 
       1.376    -3.528081    2.4446722   -1.0834089    1.6429249    1.2358311 
       1.378   -3.5362407    2.4493033   -1.0869374    1.6460371    1.2061341 
        1.38   -3.5441335    2.4536388   -1.0904947    1.6489508    1.1771496 
       1.382   -3.5520529    2.4574498   -1.0946032    1.6515119    1.1488158 
       1.384   -3.5589663    2.4604804   -1.0984859    1.6535487    1.1226166 
       1.386   -3.5655153    2.4624561   -1.1030592    1.6548764     1.098123 
       1.388   -3.5709054    2.4631045   -1.1078009    1.6553121    1.0765576 
        1.39   -3.5746108    2.4621597   -1.1124512    1.6546772    1.0588217 
       1.392   -3.5759906    2.4593694   -1.1166212     1.652802    1.0459252 
       1.394   -3.5761135    2.4545022   -1.1216113    1.6495311    1.0368874 
       1.396   -3.5738584    2.4473559   -1.1265025    1.6447284    1.0331953 
       1.398   -3.5686758    2.4377777   -1.1308982    1.6382914    1.0356373 
         1.4   -3.5617521    2.4256536   -1.1360985    1.6301436    1.0429616 
       1.402   -3.5527448    2.4109177   -1.1418271    1.6202404    1.0555997 
       1.404   -3.5409904    2.3935698   -1.1474206    1.6085819    1.0742789 
       1.406   -3.5270634    2.3736788   -1.1533846    1.5952142    1.0982304 
       1.408   -3.5109611    2.3513938   -1.1595673    1.5802378    1.1272554 
        1.41   -3.4919887    2.3269505   -1.1650382    1.5638108    1.1618507 
       1.412   -3.4722797    2.3006749   -1.1716047    1.5461525    1.1992071 
       1.414    -3.450381    2.2729643   -1.1774167    1.5275298    1.2405268 
       1.416   -3.4273619    2.2442485   -1.1831133    1.5082315    1.2840917 
       1.418   -3.4041612    2.2149657   -1.1891954    1.4885522    1.3283253 
        1.42   -3.3807734    2.1855198   -1.1952536    1.4687633     1.372754 
       1.422   -3.3573859    2.1562488   -1.2011371    1.4490919    1.4167469 
       1.424   -3.3343751    2.1274173   -1.2069579    1.4297159    1.4595392 
       1.426   -3.3121624     2.099208   -1.2129543    1.4107581    1.5003843 
       1.428   -3.2908643     2.071758   -1.2191063    1.3923105    1.5389263 
        1.43   -3.2695573    2.0452011   -1.2243562    1.3744631    1.5759926 
       1.432   -3.2494374    2.0197093   -1.2297281    1.3573315    1.6099783 
       1.434   -3.2310031    1.9955297   -1.2354733    1.3410818    1.6400161 
       1.436   -3.2135168    1.9729857   -1.2405311    1.3259312    1.6665739 
       1.438   -3.1979965    1.9524498   -1.2455468    1.3121302    1.6880905 
        1.44   -3.1849663    1.9343214   -1.2506449    1.2999472    1.7035583 
       1.442   -3.1738832    1.9189796   -1.2549035    1.2896368    1.7132087 
       1.444    -3.166093    1.9067333   -1.2593598    1.2814068    1.7152169 
       1.446   -3.1610237    1.8978028   -1.2632209    1.2754051    1.7100268 
       1.448   -3.1598232    1.8923042   -1.2675189    1.2717098    1.6962648 
        1.45   -3.1610524    1.8902417   -1.2708107    1.2703237    1.6755829 
       1.452   -3.1655199    1.8915218   -1.2739981     1.271184    1.6472109 
       1.454   -3.1730457    1.8959732   -1.2770724    1.2741755    1.6115832 
       1.456   -3.1835133    1.9033558   -1.2801575    1.2791369    1.5691369 
       1.458   -3.1951895    1.9133851   -1.2818045    1.2858771    1.5221821 
        1.46    -3.209714    1.9257379    -1.283976    1.2941787    1.4692925 
       1.462   -3.2259371    1.9400581    -1.285879    1.3038025    1.4121905 
       1.464   -3.2441431    1.9559821    -1.288161    1.3145041    1.3510043 
       1.466   -3.2626765    1.9731581   -1.2895185    1.3260471    1.2880261 
       1.468   -3.2818645    1.9912563   -1.2906081    1.3382099    1.2233129 
        1.47   -3.3014039    2.0099744   -1.2914295    1.3507893     1.157598 
       1.472   -3.3212952    2.0290428   -1.2922524     1.363604    1.0912451 
       1.474   -3.3410406    2.0482185    -1.292822     1.376491    1.0251395 
       1.476   -3.3593905    2.0672889   -1.2921016     1.389307   0.96097452 
       1.478   -3.3782604    2.0860612   -1.2921993    1.4019228   0.89689819 
        1.48   -3.3964283    2.1043509   -1.2920773    1.4142143     0.834526 
       1.482   -3.4136094    2.1219937   -1.2916156    1.4260711   0.77441258 
       1.484   -3.4298032    2.1388387   -1.2909645    1.4373916   0.71677669 
       1.486   -3.4447497    2.1547466   -1.2900031    1.4480824   0.66209982 
       1.488   -3.4587464    2.1696052   -1.2891413     1.458068   0.61022042 
        1.49   -3.4714539    2.1833275   -1.2881265      1.46729   0.56165065 
       1.492   -3.4833528    2.1958531   -1.2874997    1.4757077   0.51595959 
       1.494   -3.4932548    2.2071548      -1.2861     1.483303   0.47452541 
       1.496   -3.5014347    2.2172362   -1.2841985    1.4900781    0.4370725 
       1.498   -3.5088512    2.2261229   -1.2827283    1.4960504   0.40253836 
         1.5   -3.5146468    2.2338616   -1.2807853     1.501251    0.3718387 
       1.502   -3.5198151    2.2405196   -1.2792955    1.5057256   0.34383196 
       1.504   -3.5231342    2.2461706   -1.2769637    1.5095232   0.31980683 
       1.506   -3.5255948    2.2508819   -1.2747128    1.5126895    0.2986112 
       1.508   -3.5272637    2.2547119   -1.2725518    1.5152634   0.28011419 
        1.51   -3.5279325    2.2577076   -1.2702249    1.5172766   0.26449643 
       1.512   -3.5281617    2.2599035   -1.2682582    1.5187524   0.25110406 
       1.514   -3.5274531    2.2613157   -1.2661374    1.5197014   0.24045242 
       1.516   -3.5260715    2.2619482   -1.2641233    1.5201265   0.23222308 
       1.518   -3.5236338    2.2618021   -1.2618317    1.5200283   0.22680769 
        1.52   -3.5213171    2.2608822   -1.2604349    1.5194101   0.22288303 
       1.522   -3.5177105    2.2592096   -1.2585008    1.5182861   0.22195192 
       1.524   -3.5125843     2.256818   -1.2557662    1.5166788   0.22420592 
       1.526   -3.5079447    2.2537543   -1.2541904    1.5146198   0.22737374 
       1.528   -3.5025499    2.2500845   -1.2524653    1.5121536   0.23271994 
        1.53   -3.4960904     2.245891   -1.2501994    1.5093353   0.24047289 
       1.532   -3.4900852    2.2412654   -1.2488198    1.5062268    0.2488523 
       1.534    -3.483458    2.2363032   -1.2471548     1.502892   0.25890264 
       1.536   -3.4760372    2.2311028   -1.2449343    1.4993971   0.27067742 
       1.538   -3.4687021    2.2257639   -1.2429382    1.4958091   0.28308835 
        1.54   -3.4607538    2.2203792   -1.2403746    1.4921903   0.29677495 
       1.542   -3.4531821    2.2150307   -1.2381515    1.4885959   0.31054718 
       1.544   -3.4456597    2.2097884   -1.2358713    1.4850728    0.3246628 
       1.546   -3.4387576    2.2047104   -1.2340472    1.4816602   0.33841649 
       1.548   -3.4316059    2.1998477   -1.2317581    1.4783923   0.35268775 
        1.55   -3.4247517     2.195233   -1.2295187     1.475291   0.36682633 
       1.552   -3.4175474     2.190882   -1.2266654    1.4723669   0.38149191 
       1.554   -3.4107767    2.1868043   -1.2239724    1.4696265   0.39580225 
       1.556   -3.4036517    2.1830025   -1.2206492    1.4670716   0.41059333 
       1.558    -3.397726    2.1794734   -1.2182527    1.4646999   0.42416925 
        1.56   -3.3914071    2.1762002    -1.215207    1.4625001   0.43825407 
       1.562   -3.3858421    2.1731657   -1.2126764    1.4604608     0.451608 
       1.564   -3.3799555    2.1703464   -1.2096091    1.4585661   0.46540592 
       1.566   -3.3738387    2.1677153   -1.2061234    1.4567979    0.4795609 
       1.568   -3.3679825    2.1652487   -1.2027339    1.4551402   0.49355729 
        1.57   -3.3619572    2.1629177   -1.1990395    1.4535737   0.50787294 
       1.572   -3.3557258    2.1606975   -1.1950283    1.4520816   0.52255442 
       1.574   -3.3492674    2.1585775   -1.1906899    1.4506569   0.53762361 
       1.576   -3.3433619    2.1565661   -1.1867958    1.4493052   0.55222358 
       1.578   -3.3371081    2.1546856   -1.1824225    1.4480414   0.56729371 
        1.58    -3.330934    2.1529851   -1.1779489    1.4468986   0.58231186 
       1.582   -3.3245191    2.1515468   -1.1729723     1.445932   0.59753834 
       1.584   -3.3187543    2.1504883    -1.168266    1.4452206   0.61189755 
       1.586   -3.3131233    2.1499574   -1.1631658    1.4448639   0.62580768 
       1.588   -3.3076512    2.1501263   -1.1575248    1.4449774   0.63908175 
        1.59   -3.3022633    2.1511845   -1.1510789    1.4456885   0.65163164 
       1.592   -3.2976545    2.1533173   -1.1443372    1.4471218   0.66254182 
       1.594   -3.2941133    2.1566936   -1.1374198    1.4493908   0.67135585 
       1.596   -3.2914976    2.1614461   -1.1300515    1.4525848   0.67811925 
       1.598   -3.2900115    2.1676566   -1.1223549    1.4567585   0.68255638 
         1.6   -3.2896735     2.175346   -1.1143274    1.4619261   0.68465575 
       1.602   -3.2910692    2.1844594   -1.1066098    1.4680507   0.68385962 
       1.604   -3.2925032    2.1948709   -1.0976323    1.4750476    0.6821316 
       1.606   -3.2953606    2.2064006     -1.08896    1.4827961   0.67817156 
       1.608   -3.2992931     2.218828   -1.0804651    1.4911478   0.67258652 
        1.61   -3.3036681    2.2319098   -1.0717583    1.4999394   0.66630786 
       1.612   -3.3072065     2.245401   -1.0618055     1.509006   0.66095908 
       1.614   -3.3103525     2.259075   -1.0512775    1.5181956   0.65628285 
       1.616   -3.3133223    2.2727458   -1.0405765    1.5273829   0.65222721 
       1.618   -3.3165295    2.2862807   -1.0302488     1.536479   0.64847596 
        1.62   -3.3191447    2.2996056    -1.019539    1.5454339    0.6459932 
       1.622   -3.3207824    2.3126999   -1.0080825    1.5542338   0.64520816 
       1.624   -3.3228006    2.3255883  -0.99721227    1.5628954   0.64462834 
       1.626   -3.3245049    2.3383284  -0.98617645    1.5714573   0.64493531 
       1.628    -3.325744    2.3509942  -0.97474978    1.5799692   0.64620968 
        1.63   -3.3268874    2.3636623  -0.96322509    1.5884827   0.64797425 
       1.632   -3.3277663    2.3763867  -0.95137953    1.5970341   0.65034354 
       1.634     -3.32844     2.389193    -0.939247    1.6056405   0.65321353 
       1.636   -3.3302349     2.402073  -0.92816187    1.6142964   0.65515433 
       1.638   -3.3315702    2.4149736  -0.91659659    1.6229661   0.65789417 
        1.64   -3.3326518    2.4278026  -0.90484922    1.6315878   0.66128136 
       1.642   -3.3325976    2.4404287  -0.89216892     1.640073   0.66637241 
       1.644   -3.3336183     2.452674  -0.88094428    1.6483024   0.67093874 
       1.646   -3.3344759    2.4643155  -0.87016044     1.656126   0.67648964 
       1.648   -3.3335103    2.4750958  -0.85841457    1.6633708   0.68502192 
        1.65   -3.3322964    2.4847287  -0.84756775    1.6698445   0.69508892 
       1.652   -3.3300251    2.4929009  -0.83712417    1.6753366   0.70781918 
       1.654   -3.3261434    2.4992893  -0.82685407    1.6796299   0.72406977 
       1.656   -3.3212666    2.5035761  -0.81769051    1.6825108   0.74342775 
       1.658   -3.3138258    2.5054742  -0.80835159    1.6837864    0.7677854 
        1.66   -3.3041319    2.5047591  -0.79937274    1.6833059   0.79695536 
       1.662   -3.2916675    2.5012917   -0.7903758    1.6809756   0.83154762 
       1.664   -3.2766787    2.4950498  -0.78162896    1.6767808   0.87123485 
       1.666   -3.2595571    2.4861616  -0.77339552    1.6708075   0.91539143 
       1.668   -3.2409942    2.4749303   -0.7660639    1.6632596   0.96290709 
        1.67   -3.2206949    2.4618514   -0.7588435      1.65447    1.0135552 
       1.672    -3.199859    2.4476138  -0.75224517    1.6449017    1.0653359 
       1.674    -3.178811    2.4330719  -0.74573914    1.6351289    1.1170402 
       1.676   -3.1590249    2.4191942  -0.73983073    1.6258025    1.1661314 
       1.678    -3.141361    2.4069799  -0.73438106     1.617594     1.210712 
        1.68   -3.1262018    2.3973518  -0.72884999    1.6111235    1.2494761 
       1.682   -3.1137606    2.3910552  -0.72270535     1.606892    1.2814852 
       1.684   -3.1065752    2.3885571  -0.71801809    1.6052131    1.3035821 
       1.686    -3.103062    2.3899869  -0.71307507     1.606174    1.3173461 
       1.688    -3.103386    2.3951285  -0.70825755    1.6096293    1.3228008 
        1.69   -3.1079355     2.403474  -0.70446154    1.6152379    1.3200025 
       1.692   -3.1150944     2.414327  -0.70076741    1.6225316    1.3113506 
       1.694   -3.1241938    2.4268942  -0.69729963    1.6309773    1.2983269 
       1.696   -3.1337806    2.4403756    -0.693405    1.6400374    1.2832619 
       1.698   -3.1445759    2.4540495  -0.69052646    1.6492268    1.2661045 
         1.7   -3.1549287    2.4673033  -0.68762546    1.6581339    1.2492435 
       1.702   -3.1647564    2.4796532  -0.68510314    1.6664336    1.2332682 
       1.704   -3.1733307    2.4907501  -0.68258061    1.6738912    1.2193393 
       1.706   -3.1805511    2.5003564  -0.68019473     1.680347    1.2078331 
       1.708   -3.1860331    2.5083372  -0.67769586    1.6857105    1.1993374 
        1.71   -3.1907607    2.5146275  -0.67613321    1.6899378    1.1928983 
       1.712   -3.1935482    2.5192153  -0.67433286     1.693021    1.1898248 
       1.714   -3.1950862    2.5221331  -0.67295307    1.6949819    1.1893763 
       1.716    -3.195436    2.5234402  -0.67199586    1.6958603    1.1914512 
       1.718   -3.1944112     2.523215   -0.6711962     1.695709    1.1961847 
        1.72   -3.1919757    2.5215564  -0.67041934    1.6945943    1.2035288 
       1.722   -3.1891466    2.5185764  -0.67057018    1.6925917    1.2122907 
       1.724   -3.1852641     2.514399  -0.67086505    1.6897843    1.2230575 
       1.726   -3.1810989    2.5091533  -0.67194562     1.686259    1.2348797 
       1.728    -3.175597    2.5029682  -0.67262878    1.6821023    1.2487581 
        1.73   -3.1691306    2.4959643  -0.67316623    1.6773954    1.2641745 
       1.732   -3.1624454    2.4882442   -0.6742012    1.6722071    1.2802219 
       1.734   -3.1551022    2.4798978  -0.67520444     1.666598    1.2972735 
       1.736   -3.1472906    2.4709965   -0.6762941    1.6606159    1.3150429 
       1.738   -3.1394435    2.4615967  -0.67784685    1.6542989    1.3329946 
        1.74   -3.1316018    2.4517459  -0.67985589    1.6476787    1.3510199 
       1.742   -3.1230116     2.441486   -0.6815256    1.6407836    1.3698603 
       1.744   -3.1150013    2.4308557  -0.68414556    1.6336396    1.3880347 
       1.746   -3.1066873     2.419895  -0.68679226    1.6262736    1.4064164 
       1.748   -3.0978458    2.4086516   -0.6891942    1.6187174    1.4251662 
        1.75   -3.0886627     2.397189  -0.69147372    1.6110141    1.4439984 
       1.752   -3.0795862    2.3855835  -0.69400268    1.6032147    1.4623324 
       1.754   -3.0713535    2.3739254  -0.69742808      1.59538    1.4792619 
       1.756   -3.0624946    2.3623242  -0.70017039    1.5875835    1.4962137 
       1.758   -3.0539193    2.3509158   -0.7030035    1.5799166    1.5120624 
        1.76   -3.0460311    2.3398509  -0.70618022    1.5724804    1.5262049 
       1.762   -3.0389759    2.3292881  -0.70968772    1.5653818    1.5382984 
       1.764   -3.0329214    2.3194024  -0.71351892    1.5587382    1.5479755 
       1.766   -3.0275131    2.3103682   -0.7171449    1.5526668    1.5554291 
       1.768   -3.0233036    2.3023518  -0.72095179    1.5472795    1.5599028 
        1.77   -3.0197787    2.2955008  -0.72427791    1.5426753       1.5618 
       1.772   -3.0178341    2.2899321  -0.72790196    1.5389329     1.560057 
       1.774   -3.0174158    2.2857273  -0.73168851    1.5361071     1.554661 
       1.776   -3.0180452    2.2829323   -0.7351129    1.5342287    1.5460972 
       1.778   -3.0199797    2.2815487  -0.73843101    1.5332989    1.5341163 
        1.78   -3.0238232    2.2815276  -0.74229565    1.5332846    1.5181485 
       1.782    -3.028702     2.282781  -0.74592094     1.534127    1.4992437 
       1.784   -3.0350112    2.2851834  -0.74982784    1.5357415     1.477154 
       1.786   -3.0418046    2.2885692  -0.75323548    1.5380169    1.4530983 
       1.788   -3.0495326    2.2927367  -0.75679586    1.5408177    1.4268517 
        1.79   -3.0578351    2.2974549  -0.76038019    1.5439885    1.3990779 
       1.792   -3.0667193    2.3024704  -0.76424893    1.5473591     1.370071 
       1.794   -3.0760549    2.3075212  -0.76853366    1.5507535    1.3402783 
       1.796   -3.0850722    2.3123544  -0.77271777    1.5540016    1.3108205 
       1.798   -3.0934076    2.3167397  -0.77666784    1.5569487    1.2823717 
         1.8   -3.1009839    2.3204664  -0.78051745    1.5594532    1.2552695 
       1.802   -3.1080198    2.3233597  -0.78466012    1.5613976     1.229499 
       1.804   -3.1145267    2.3252992  -0.78922752    1.5627011    1.2052222 
       1.806     -3.11899    2.3262064  -0.79278357    1.5633108    1.1841618 
       1.808   -3.1228126    2.3260485  -0.79676414    1.5632046    1.1649084 
        1.81   -3.1254854    2.3248384   -0.8006471    1.5623914    1.1480294 
       1.812   -3.1274462    2.3226245  -0.80482171    1.5609036    1.1330549 
       1.814   -3.1288937    2.3194763  -0.80941739    1.5587879    1.1197378 
       1.816    -3.128992    2.3154733  -0.81351869    1.5560976    1.1089012 
       1.818   -3.1283414    2.3106977  -0.81764368    1.5528883    1.0998427 
        1.82   -3.1272811    2.3052304  -0.82205072     1.549214    1.0921356 
       1.822   -3.1258735    2.2991439   -0.8267296    1.5451236    1.0856482 
       1.824   -3.1240455    2.2924967  -0.83154882    1.5406564    1.0803958 
       1.826   -3.1217101    2.2853377  -0.83637232    1.5358453    1.0764115 
       1.828   -3.1182444    2.2777077  -0.84053667    1.5307175    1.0742896 
        1.83   -3.1145992    2.2696479  -0.84495127     1.525301    1.0729618 
       1.832   -3.1099125    2.2612161  -0.84869641    1.5196345    1.0732535 
       1.834   -3.1056928    2.2524934  -0.85319935    1.5137725     1.073479 
       1.836   -3.1009892    2.2435808  -0.85740837    1.5077828    1.0745081 
       1.838   -3.0964446    2.2346059  -0.86183864    1.5017513    1.0755065 
        1.84   -3.0913062    2.2257334  -0.86557283    1.4957885    1.0770786 
       1.842   -3.0871949    2.2171557   -0.8700392     1.490024    1.0773153 
       1.844   -3.0832706     2.209087  -0.87418363    1.4846015    1.0768763 
       1.846     -3.08014    2.2017432  -0.87839676    1.4796661    1.0748993 
       1.848   -3.0777464    2.1953294  -0.88241706    1.4753558    1.0712299 
        1.85   -3.0769162    2.1900283  -0.88688793    1.4717932    1.0648193 
       1.852   -3.0764821    2.1859774  -0.89050469    1.4690708    1.0567486 
       1.854   -3.0778264    2.1832575   -0.8945689    1.4672429    1.0454854 
       1.856   -3.0799248    2.1818899  -0.89803493    1.4663238    1.0320819 
       1.858   -3.0828661    2.1818299  -0.90103611    1.4662836    1.0164927 
        1.86   -3.0877043     2.182964  -0.90474025    1.4670457   0.99772602 
       1.862   -3.0936267     2.185126  -0.90850066    1.4684987   0.97679825 
       1.864   -3.0997611     2.188104  -0.91165707       1.4705   0.95482784 
       1.866   -3.1060041    2.1916574   -0.9143467    1.4728881   0.93215877 
       1.868   -3.1134099    2.1955345  -0.91787541    1.4754936   0.90794155 
        1.87    -3.120294    2.1994845  -0.92080952    1.4781482   0.88418271 
       1.872   -3.1276068    2.2032803  -0.92432652    1.4806991   0.86013004 
       1.874   -3.1338395     2.206718  -0.92712156    1.4830094   0.83757236 
       1.876   -3.1396043    2.2096192  -0.92998507    1.4849592   0.81605615 
       1.878   -3.1446358    2.2118497  -0.93278604    1.4864582   0.79601279 
        1.88   -3.1487035    2.2133055  -0.93539793    1.4874365   0.77779987 
       1.882   -3.1519952     2.213914  -0.93808124    1.4878454   0.76130218 
       1.884   -3.1542188    2.2136404   -0.9405784    1.4876615   0.74686977 
       1.886   -3.1558958    2.2124841  -0.94341168    1.4868845   0.73397163 
       1.888   -3.1564075    2.2104775  -0.94593007    1.4855359   0.72322818 
        1.89   -3.1565961    2.2076802  -0.94891592    1.4836561   0.71370706 
       1.892   -3.1560312    2.2041873  -0.95184388    1.4813087   0.70576793 
       1.894   -3.1537964    2.2001287  -0.95366764    1.4785811   0.70024531 
       1.896   -3.1518777    2.1956607  -0.95621693    1.4755785   0.69493351 
       1.898   -3.1494021    2.1909634  -0.95843863    1.4724217   0.69057223 
         1.9   -3.1473518    2.1862318  -0.96111999    1.4692418   0.68595901 
       1.902    -3.144877     2.181665  -0.96321207    1.4661727   0.68178188 
       1.904   -3.1428294    2.1774633  -0.96536604     1.463349   0.67696873 
       1.906   -3.1415202    2.1738097  -0.96771046    1.4608936   0.67102141 
       1.908   -3.1401944     2.170864  -0.96933044     1.458914   0.66457382 
        1.91   -3.1401473     2.168748  -0.97139927    1.4574919   0.65617313 
       1.912   -3.1402737    2.1675316  -0.97274207    1.4566745   0.64689475 
       1.914   -3.1425563    2.1672401   -0.9753162    1.4564785   0.63466948 
       1.916   -3.1444849    2.1678452  -0.97663974    1.4568852   0.62212346 
       1.918   -3.1474193    2.1692698  -0.97814954    1.4578426   0.60792074 
        1.92   -3.1511166    2.1713992   -0.9797174    1.4592736   0.59241791 
       1.922   -3.1554416    2.1740967  -0.98134486    1.4610865   0.57588499 
       1.924   -3.1594624     2.177214  -0.98224832    1.4631815    0.5594282 
       1.926   -3.1644669    2.1805987  -0.98386821    1.4654561   0.54186141 
       1.928   -3.1692726    2.1841121   -0.9851605    1.4678173    0.5245459 
        1.93   -3.1737555    2.1876267  -0.98612882    1.4701793   0.50773405 
       1.932   -3.1783367     2.191037  -0.98729967    1.4724711   0.49109853 
       1.934   -3.1825443    2.1942602  -0.98828407    1.4746372   0.47521418 
       1.936   -3.1872341    2.1972346  -0.98999946    1.4766362    0.4592666 
       1.938   -3.1906762    2.1999233  -0.99075289    1.4784431   0.44509218 
        1.94   -3.1945482    2.2023051  -0.99224317    1.4800437   0.43099653 
       1.942    -3.197926    2.2043669  -0.99355913    1.4814294   0.41795405 
       1.944   -3.2005484    2.2061027  -0.99444567    1.4825959    0.4062441 
       1.946   -3.2032046    2.2075178  -0.99568671    1.4835469   0.39505811 
       1.948   -3.2060368    2.2086235  -0.99741331      1.48429   0.38425174 
        1.95   -3.2077507    2.2094276  -0.99832317    1.4848304   0.37515748 
       1.952   -3.2087439    2.2099354  -0.99880852    1.4851716   0.36736455 
       1.954   -3.2095439    2.2101493  -0.99939462    1.4853154   0.36033074 
       1.956   -3.2104101    2.2100704   -1.0003396    1.4852624   0.35379478 
       1.958   -3.2105616     2.209699   -1.0008626    1.4850127   0.34857167 
[...]
      49.534   -3.7602058     2.050001   -1.7102048    1.3776888   0.17233769 
      49.536   -3.7572951    2.0460066   -1.7112885    1.3750044   0.19021589 
      49.538   -3.7531503    2.0413278   -1.7118225    1.3718601   0.21117706 
       49.54   -3.7475976    2.0359215    -1.711676    1.3682268    0.2354499 
      49.542   -3.7415441    2.0297874   -1.7117567    1.3641044   0.26193353 
      49.544   -3.7349068    2.0229744   -1.7119324    1.3595258   0.29064883 
      49.546   -3.7272433    2.0155687   -1.7116746    1.3545488   0.32200196 
      49.548   -3.7197001    2.0076797   -1.7120204    1.3492471   0.35449481 
       49.55   -3.7114824    1.9994282   -1.7120542    1.3437017   0.38890601 
      49.552   -3.7027013     1.990932   -1.7117693    1.3379919   0.42494012 
      49.554   -3.6931981    1.9822997   -1.7108984    1.3321907   0.46262701 
      49.556   -3.6842437    1.9736288    -1.710615    1.3263634   0.50032233 
      49.558   -3.6745985    1.9649944   -1.7096041    1.3205608   0.53936845 
       49.56   -3.6649621    1.9564474   -1.7085146    1.3148168    0.5788341 
      49.562    -3.654977    1.9480273   -1.7069496    1.3091582   0.61906195 
      49.564    -3.645175    1.9397518   -1.7054232    1.3035966   0.65935784 
      49.566   -3.6351587    1.9316183   -1.7035404    1.2981306   0.70013764 
      49.568   -3.6250498    1.9236222   -1.7014276    1.2927568   0.74121124 
       49.57   -3.6147026    1.9157606    -1.698942    1.2874735   0.78270643 
      49.572    -3.604772    1.9080328   -1.6967392    1.2822801   0.82379234 
      49.574   -3.5947385    1.9004499   -1.6942885    1.2771841   0.86501318 
      49.576   -3.5847659    1.8930478    -1.691718    1.2722096   0.90607866 
      49.578   -3.5741266     1.885891   -1.6882357    1.2673998   0.94772199 
       49.58    -3.563449    1.8790866   -1.6843624     1.262827   0.98902575 
      49.582   -3.5534072    1.8727939   -1.6806133     1.258598    1.0289701 
      49.584   -3.5436814    1.8672183   -1.6764631     1.254851     1.067661 
      49.586   -3.5342649    1.8626167   -1.6716482    1.2517585    1.1047824 
      49.588   -3.5263715    1.8592928   -1.6670787    1.2495247    1.1385247 
       49.59   -3.5194292    1.8575869   -1.6618423    1.2483783    1.1691794 
      49.592   -3.5144377     1.857849   -1.6565887    1.2485544    1.1951702 
      49.594   -3.5117184    1.8603979   -1.6513205    1.2502674     1.215758 
      49.596   -3.5104853    1.8654943    -1.644991    1.2536924    1.2315949 
      49.598   -3.5123462    1.8733062     -1.63904    1.2589423    1.2405853 
        49.6   -3.5169592    1.8838848   -1.6330744    1.2660516    1.2430875 
      49.602   -3.5235932    1.8971536   -1.6264396    1.2749688    1.2400704 
      49.604   -3.5321828    1.9129121   -1.6192706    1.2855592    1.2318517 
      49.606    -3.542555    1.9308505   -1.6117045    1.2976146    1.2189999 
      49.608   -3.5547077    1.9505708   -1.6041369    1.3108675    1.2019711 
       49.61   -3.5679385    1.9716257   -1.5963128    1.3250173    1.1821172 
      49.612   -3.5819387     1.993558   -1.5883807    1.3397568    1.1603516 
      49.614   -3.5960021    2.0159113   -1.5800908    1.3547791    1.1380585 
      49.616   -3.6098357    2.0382415   -1.5715943    1.3697859    1.1161012 
      49.618   -3.6230632     2.060145   -1.5629182     1.384506    1.0954074 
       49.62   -3.6350872    2.0812622    -1.553825    1.3986977     1.077124 
      49.622   -3.6460119    2.1012754   -1.5447365    1.4121475    1.0615065 
      49.624   -3.6554646    2.1199119   -1.5355527     1.424672    1.0493273 
      49.626   -3.6629871    2.1369463   -1.5260408    1.4361198    1.0414059 
      49.628   -3.6685632    2.1521942   -1.5163691     1.446367    1.0379721 
       49.63   -3.6727334     2.165512   -1.5072214    1.4553172    1.0385241 
      49.632   -3.6745259    2.1768099   -1.4977159    1.4629099    1.0443102 
      49.634    -3.674198    2.1860548   -1.4881432    1.4691228    1.0550403 
      49.636   -3.6727101    2.1932609   -1.4794491    1.4739657    1.0695089 
      49.638   -3.6689823    2.1984971   -1.4704851    1.4774846    1.0888897 
       49.64   -3.6631701     2.201895   -1.4612751    1.4797681     1.112811 
      49.642   -3.6570506    2.2036392   -1.4534114    1.4809403    1.1388922 
      49.644   -3.6495641    2.2039531    -1.445611    1.4811513    1.1681033 
      49.646   -3.6405899    2.2030942   -1.4374957     1.480574    1.2002439 
      49.648   -3.6308224    2.2013486   -1.4294738     1.479401     1.234106 
       49.65   -3.6209691    2.1990176   -1.4219514    1.4778344    1.2684538 
      49.652   -3.6104154     2.196397   -1.4140185    1.4760732    1.3036439 
      49.654   -3.6007559    2.1937605   -1.4069954    1.4743014    1.3373919 
      49.656   -3.5913258    2.1913561   -1.3999696    1.4726856    1.3701675 
      49.658   -3.5819472     2.189392   -1.3925551    1.4713656    1.4019008 
       49.66   -3.5744835    2.1880299   -1.3864536    1.4704502    1.4301142 
      49.662   -3.5683938    2.1873841   -1.3810097    1.4700162    1.4552851 
      49.664   -3.5629622    2.1875209   -1.3754413    1.4701082    1.4781607 
      49.666   -3.5582119    2.1884629   -1.3697491    1.4707412    1.4986511 
      49.668   -3.5542475    2.1901939   -1.3640536    1.4719045     1.516615 
       49.67     -3.55168    2.1926718   -1.3590082    1.4735697    1.5313393 
      49.672   -3.5501809    2.1958345   -1.3543463    1.4756953    1.5432757 
      49.674   -3.5494129    2.1996094   -1.3498034    1.4782322    1.5529091 
      49.676   -3.5499397    2.2039181   -1.3460216    1.4811277    1.5596508 
      49.678   -3.5502416    2.2086815   -1.3415602    1.4843289    1.5654415 
       49.68   -3.5514059    2.2138193   -1.3375865    1.4877818    1.5690804 
      49.682   -3.5530758    2.2192446   -1.3338312    1.4914278     1.571121 
      49.684   -3.5555409    2.2248634   -1.3306775    1.4952039    1.5713494 
      49.686   -3.5577778     2.230573   -1.3272048     1.499041    1.5711613 
      49.688    -3.560566    2.2362501   -1.3243159    1.5028563    1.5697895 
       49.69   -3.5629703    2.2417499   -1.3212204    1.5065523    1.5685603 
      49.692   -3.5648304    2.2469214    -1.317909    1.5100278    1.5678803 
      49.694   -3.5674091    2.2516037   -1.3158055    1.5131745    1.5664339 
      49.696   -3.5690991    2.2556326   -1.3134665    1.5158821    1.5663701 
      49.698   -3.5702693    2.2588643    -1.311405     1.518054    1.5674222 
        49.7   -3.5696251    2.2611882   -1.3084368    1.5196157    1.5713057 
      49.702   -3.5690407    2.2625341   -1.3065066    1.5205202    1.5758511 
      49.704   -3.5677013    2.2628728   -1.3048285    1.5207478    1.5820995 
      49.706   -3.5657371    2.2622119   -1.3035251    1.5203037    1.5898959 
      49.708   -3.5630515    2.2605954   -1.3024561    1.5192173    1.5993135 
       49.71   -3.5590603    2.2580969   -1.3009634    1.5175383    1.6109769 
      49.712   -3.5543778      2.25482   -1.2995579     1.515336    1.6240233 
      49.714   -3.5485968    2.2508868     -1.29771    1.5126928    1.6387995 
      49.716   -3.5435463    2.2464365   -1.2971098     1.509702    1.6529117 
      49.718    -3.537425     2.241629    -1.295796    1.5064711    1.6683532 
       49.72   -3.5317028     2.236638   -1.2950649    1.5031169    1.6831246 
      49.722   -3.5260384    2.2316541   -1.2943843    1.4997675    1.6974084 
      49.724   -3.5205009    2.2268783   -1.2936226     1.496558    1.7108698 
      49.726   -3.5147787    2.2225282   -1.2922505    1.4936346     1.723623 
      49.728   -3.5102782    2.2188381   -1.2914401    1.4911546    1.7336826 
       49.73   -3.5063191    2.2160483   -1.2902708    1.4892798    1.7415875 
      49.732   -3.5035384    2.2144023   -1.2891362    1.4881736    1.7462751 
      49.734   -3.5023066    2.2141415   -1.2881651    1.4879983    1.7470249 
      49.736   -3.5024419    2.2154769    -1.286965    1.4888958    1.7438293 
      49.738   -3.5048773    2.2185574   -1.2863199     1.490966    1.7354026 
       49.74   -3.5088915    2.2234393   -1.2854522    1.4942468    1.7225812 
      49.742   -3.5150641    2.2300489   -1.2850152    1.4986888    1.7047499 
      49.744   -3.5224213    2.2381948   -1.2842264    1.5041632    1.6833193 
      49.746   -3.5309318    2.2475831   -1.2833487    1.5104725    1.6586662 
      49.748   -3.5402432    2.2578601   -1.2823831    1.5173791    1.6316255 
       49.75   -3.5500032    2.2686719   -1.2813314    1.5246451     1.603052 
      49.752   -3.5604187    2.2796948   -1.2807239     1.532053    1.5730918 
      49.754   -3.5708377    2.2906647   -1.2801729    1.5394252    1.5428834 
      49.756   -3.5817142    2.3013747   -1.2803395    1.5466228    1.5121646 
      49.758   -3.5915853    2.3116591   -1.2799262    1.5535344    1.4829631 
       49.76   -3.6007014    2.3213656   -1.2793358    1.5600575     1.455202 
      49.762   -3.6093067    2.3303408   -1.2789659    1.5660892    1.4288098 
      49.764   -3.6171168    2.3384263   -1.2786905     1.571523    1.4043622 
      49.766    -3.624495     2.345457    -1.279038     1.576248    1.3816417 
      49.768   -3.6305106    2.3512852   -1.2792253    1.5801648    1.3619824 
       49.77   -3.6351869    2.3557976   -1.2793892    1.5831973    1.3455144 
      49.772   -3.6391165    2.3589303   -1.2801862    1.5853027    1.3316126 
      49.774    -3.640863    2.3606832   -1.2801799    1.5864806    1.3220494 
      49.776   -3.6416655    2.3611164   -1.2805491    1.5867718    1.3152781 
      49.778   -3.6417583    2.3603321   -1.2814261    1.5862447    1.3109149 
       49.78    -3.640102    2.3584668   -1.2816353    1.5849911    1.3100872 
      49.782   -3.6384204    2.3556752   -1.2827452    1.5831151    1.3105513 
      49.784   -3.6358077    2.3520992   -1.2837085    1.5807118    1.3132564 
      49.786   -3.6323807    2.3478576   -1.2845231    1.5778613    1.3179235 
      49.788   -3.6287533    2.3430462   -1.2857071    1.5746278    1.3236949 
       49.79   -3.6244748     2.337739   -1.2867358    1.5710611    1.3310322 
      49.792   -3.6199778    2.3319835   -1.2879943    1.5671932    1.3393428 
      49.794   -3.6150267      2.32581   -1.2892167    1.5630444     1.348857 
      49.796   -3.6101696    2.3192485   -1.2909211    1.5586347    1.3588583 
      49.798   -3.6049095    2.3123311   -1.2925784    1.5539859    1.3698927 
        49.8   -3.5987646    2.3051026   -1.2936619    1.5491281    1.3824761 
      49.802   -3.5929632    2.2976237   -1.2953394     1.544102    1.3950345 
      49.804   -3.5867846    2.2899581   -1.2968265    1.5389503    1.4083432 
      49.806    -3.580031    2.2821759   -1.2978551    1.5337203    1.4225337 
      49.808   -3.5744691    2.2743507   -1.3001184    1.5284615     1.435355 
       49.81    -3.568592    2.2665486   -1.3020434    1.5232182    1.4485346 
      49.812   -3.5632274    2.2588201   -1.3044072    1.5180243    1.4609815 
      49.814   -3.5574829    2.2511913   -1.3062917    1.5128973    1.4737037 
      49.816   -3.5524074    2.2436733   -1.3087341     1.507845    1.4853738 
      49.818   -3.5470866    2.2362685   -1.3108181    1.5028686     1.497059 
       49.82   -3.5422925    2.2289745    -1.313318    1.4979667    1.5077896 
      49.822   -3.5373632    2.2217848   -1.3155785    1.4931349    1.5183304 
      49.824   -3.5320278    2.2146946   -1.3173333      1.48837    1.5289597 
      49.826   -3.5273389    2.2077214   -1.3196175    1.4836837    1.5383385 
      49.828   -3.5228153    2.2009035   -1.3219117    1.4791018    1.5469653 
       49.83     -3.51929    2.1943032   -1.3249867    1.4746661    1.5537251 
      49.832   -3.5155383    2.1880023    -1.327536    1.4704316     1.559971 
      49.834   -3.5120511    2.1821054   -1.3299457    1.4664687    1.5649616 
      49.836   -3.5086884    2.1767342   -1.3319542     1.462859    1.5687072 
      49.838   -3.5062215    2.1720154    -1.334206    1.4596878    1.5701075 
       49.84   -3.5043929    2.1680826   -1.3363103    1.4570448    1.5693097 
      49.842   -3.5030646    2.1650653   -1.3379993     1.455017    1.5663249 
      49.844   -3.5027494    2.1630829   -1.3396665    1.4536848    1.5603917 
      49.846   -3.5039394    2.1622413   -1.3416981    1.4531191    1.5507947 
      49.848   -3.5060739    2.1626336   -1.3434403    1.4533828    1.5381182 
       49.85   -3.5089596    2.1643314   -1.3446282    1.4545238     1.522533 
      49.852   -3.5147354    2.1673804    -1.347355    1.4565729    1.5014317 
      49.854   -3.5219764    2.1717937   -1.3501827    1.4595388    1.4765501 
      49.856   -3.5292193    2.1775454   -1.3516739    1.4634042    1.4497154 
      49.858   -3.5386292    2.1845752   -1.3540539    1.4681285    1.4184328 
       49.86   -3.5485322    2.1927763   -1.3557559      1.47364    1.3848931 
      49.862    -3.559169    2.2019931   -1.3571759    1.4798341    1.3490342 
      49.864   -3.5703408    2.2120247   -1.3583161    1.4865757    1.3113773 
      49.866   -3.5823356    2.2226282   -1.3597073    1.4937018    1.2719023 
      49.868   -3.5952816    2.2335356   -1.3617459     1.501032    1.2308185 
       49.87   -3.6085013    2.2444573    -1.364044    1.5083718    1.1893229 
      49.872   -3.6205351    2.2551007   -1.3654344    1.5155247    1.1495553 
      49.874   -3.6324201    2.2651877   -1.3672324    1.5223036    1.1106405 
      49.876   -3.6437722    2.2744591   -1.3693131    1.5285343    1.0733833 
      49.878   -3.6538424    2.2826853   -1.3711571    1.5340627    1.0389863 
       49.88   -3.6628437    2.2896752   -1.3731685    1.5387602    1.0074491 
      49.882   -3.6702514    2.2952867   -1.3749648    1.5425314   0.97960847 
      49.884   -3.6760995    2.2994248   -1.3766748    1.5453123   0.95557887 
      49.886    -3.680995    2.3020279   -1.3789671    1.5470618   0.93473284 
      49.888   -3.6842569    2.3030689   -1.3811879    1.5477614   0.91793709 
       49.89   -3.6857712     2.302561   -1.3832102    1.5474201    0.9053342 
      49.892   -3.6861154    2.3005535   -1.3855618    1.5460709   0.89619817 
      49.894   -3.6853542    2.2971188   -1.3882354    1.5437627    0.8903769 
      49.896   -3.6821534    2.2923566   -1.3897968    1.5405622    0.8893589 
      49.898   -3.6784682    2.2863937   -1.3920745    1.5365549    0.8906625 
        49.9   -3.6737849    2.2793743   -1.3944106    1.5318376   0.89472969 
      49.902   -3.6686546    2.2714651   -1.3971895    1.5265222   0.90070093 
      49.904   -3.6627397    2.2628534   -1.3998863    1.5207348   0.90875277 
      49.906   -3.6558531    2.2537491    -1.402104    1.5146164   0.91886008 
      49.908   -3.6490013    2.2443812   -1.4046201    1.5083207   0.92955618 
       49.91   -3.6430587    2.2349815   -1.4080772    1.5020037   0.93952232 
      49.912   -3.6361623    2.2257777   -1.4103846    1.4958184   0.95070841 
      49.914   -3.6296908    2.2169823   -1.4127084    1.4899075   0.96120864 
      49.916   -3.6246094     2.208781   -1.4158284    1.4843958   0.96964335 
      49.918   -3.6201426    2.2013189   -1.4188236     1.479381   0.97675577 
       49.92   -3.6167672     2.194687   -1.4220802    1.4749241   0.98185258 
      49.922   -3.6134682    2.1889165   -1.4245517    1.4710461   0.98608461 
      49.924   -3.6115076    2.1839752   -1.4275323    1.4677253   0.98795791 
      49.926   -3.6094875    2.1797705    -1.429717    1.4648995    0.9892085 
      49.928   -3.6093569    2.1761654   -1.4331915    1.4624767   0.98764434 
       49.93   -3.6085877    2.1729876      -1.4356    1.4603412   0.98644013 
      49.932   -3.6082742    2.1700329   -1.4382413    1.4583554    0.9844793 
      49.934   -3.6078147    2.1670918   -1.4407229    1.4563789   0.98266929 
      49.936   -3.6080617    2.1639745   -1.4440872    1.4542839   0.98018577 
      49.938   -3.6070122    2.1605109   -1.4465012    1.4519563   0.97957583 
       49.94   -3.6053017     2.156553   -1.4487487    1.4492964    0.9802193 
      49.942   -3.6026893    2.1519937   -1.4506957    1.4462323   0.98250141 
      49.944   -3.5994916    2.1467638   -1.4527278    1.4427176   0.98610306 
      49.946     -3.59659     2.140835    -1.455755    1.4387332   0.98998848 
      49.948   -3.5917867    2.1342303   -1.4575564    1.4342945   0.99672352 
       49.95   -3.5863227    2.1270212   -1.4593015    1.4294497    1.0047411 
      49.952   -3.5803197     2.119337   -1.4609828    1.4242856    1.0137361 
      49.954   -3.5746293    2.1113823    -1.463247    1.4189397    1.0224641 
      49.956    -3.568893    2.1034626   -1.4654304    1.4136173    1.0310228 
      49.958   -3.5626187    2.0960029   -1.4666158    1.4086041    1.0395589 
       49.96   -3.5579125    2.0895469   -1.4683656    1.4042654    1.0450269 
      49.962   -3.5546362    2.0847464   -1.4698898    1.4010392    1.0469406 
      49.964     -3.55429    2.0823131   -1.4719769     1.399404    1.0428542 
      49.966   -3.5566032    2.0828885   -1.4737147    1.3997906    1.0325024 
      49.968   -3.5626448     2.086884   -1.4757608    1.4024758    1.0142722 
       49.97    -3.571818    2.0943506   -1.4774675    1.4074937   0.98889001 
      49.972   -3.5839987    2.1049058   -1.4790929    1.4145872   0.95696317 
      49.974   -3.5987886      2.11777   -1.4810186    1.4232325   0.91982463 
      49.976   -3.6133073    2.1318926   -1.4814147    1.4327235   0.88199911 
      49.978   -3.6284883    2.1461271   -1.4823611    1.4422897   0.84359963 
       49.98   -3.6431455    2.1594126   -1.4837329    1.4512182   0.80715264 
      49.982   -3.6561666    2.1708933   -1.4852733    1.4589337   0.77489557 
      49.984   -3.6659194    2.1799668   -1.4859526    1.4650314   0.74941779 
      49.986   -3.6736248     2.186279   -1.4873458    1.4692735   0.72969413 
      49.988   -3.6777171    2.1896845   -1.4880326    1.4715622   0.71774946 
       49.99   -3.6792711    2.1902013   -1.4890698    1.4719095   0.71232313 
      49.992   -3.6775149    2.1879698   -1.4895452    1.4704098   0.71418678 
      49.994   -3.6732024    2.1832165   -1.4899858    1.4672154   0.72221597 
      49.996   -3.6670206    2.1762346   -1.4907861    1.4625232   0.73528567 
      49.998   -3.6585197    2.1673612   -1.4911584      1.45656   0.75353522 
          50   -3.6487284     2.156978   -1.4917504     1.449582   0.77531035 
Loop time of 5.21044 on 8 procs for 25000 steps with 125 atoms

Performance: 829104.960 tau/day, 4798.061 timesteps/s
104.1% CPU use with 1 MPI tasks x 8 OpenMP threads

MPI task timing breakdown:
Section |  min time  |  avg time  |  max time  |%varavg| %total
---------------------------------------------------------------
Pair    | 1.6556     | 1.6556     | 1.6556     |   0.0 | 31.78
Neigh   | 0.018235   | 0.018235   | 0.018235   |   0.0 |  0.35
Comm    | 0.10898    | 0.10898    | 0.10898    |   0.0 |  2.09
Output  | 0.57121    | 0.57121    | 0.57121    |   0.0 | 10.96
Modify  | 2.8395     | 2.8395     | 2.8395     |   0.0 | 54.50
Other   |            | 0.01689    |            |       |  0.32

Nlocal:        125.000 ave         125 max         125 min
Histogram: 1 0 0 0 0 0 0 0 0 0
Nghost:        1935.00 ave        1935 max        1935 min
Histogram: 1 0 0 0 0 0 0 0 0 0
Neighs:        14153.0 ave       14153 max       14153 min
Histogram: 1 0 0 0 0 0 0 0 0 0

Total # of neighbors = 14153
Ave neighs/atom = 113.22400
Neighbor list builds = 187
Dangerous builds = 0
unfix nve
ERROR: Could not find fix ID to delete (src/modify.cpp:1037)
Last command: unfix nve
