
### SPECIFY THE NUMBER OF PRODUCTION STEPS ###
variable Nprod equal 30000

### ASSIGN ATOMIC VELOCITIES ###
velocity all create ${T} 12345 dist gaussian rot yes mom yes
velocity all create 1.5 12345 dist gaussian rot yes mom yes

### SPECIFY ENSEMBLE ###
timestep ${timestep}
timestep 0.005
fix 1 all npt temp ${T} ${T} 0.1 iso ${p} ${p} 1.0
fix 1 all npt temp 1.5 ${T} 0.1 iso ${p} ${p} 1.0
fix 1 all npt temp 1.5 1.5 0.1 iso ${p} ${p} 1.0
fix 1 all npt temp 1.5 1.5 0.1 iso 1 ${p} 1.0
fix 1 all npt temp 1.5 1.5 0.1 iso 1 1 1.0

### THERMODYNAMIC OUTPUT CONTROL ###
thermo_style custom time pe ke etotal temp press
thermo 1

### RECORD TRAJECTORY ###
dump traj all custom 1000 traj.dump id x y z

### SPECIFY TIMESTEP ###
variable n_steps equal floor(50/${timestep})
variable n_steps equal floor(50/0.005)
timestep ${timestep}
timestep 0.005

### RUN SIMULATION TO MELT CRYSTAL ###
run ${n_steps}
run 10000
Last active /omp style is pair_style lj/cut/omp
Neighbor list info ...
  update every 1 steps, delay 10 steps, check yes
  max neighbors/atom: 2000, page size: 100000
  master list distance cutoff = 4.5
  ghost atom cutoff = 4.5
  binsize = 2.25, bins = 3 3 3
  1 neighbor lists, perpetual/occasional/extra = 1 0 0
  (1) pair lj/cut/omp, perpetual
      attributes: half, newton on, omp
      pair build: half/bin/atomonly/newton/omp
      stencil: half/bin/3d/newton
      bin: standard
Per MPI rank memory allocation (min/avg/max) = 10.63 | 10.63 | 10.63 Mbytes
Time PotEng KinEng TotEng Temp Press 
           0   -5.2647711        2.232   -3.0327711          1.5   0.89516323 
       0.005   -5.2518864    2.2190682   -3.0328183    1.4913093   0.94362409 
        0.01   -5.2128237    2.1800169   -3.0328067    1.4650651    1.0898601 
       0.015   -5.1469998    2.1144634   -3.0325364    1.4210104    1.3341855 
        0.02   -5.0537482    2.0225781   -3.0311701    1.3592595    1.6753008 
       0.025   -4.9329229    1.9058596   -3.0270633    1.2808196    2.1081439 
        0.03   -4.7883424    1.7682073   -3.0201351    1.1883113    2.6167425 
       0.035   -4.6278324    1.6171065   -3.0107259    1.0867652    3.1724103 
        0.04   -4.4647777    1.4643853   -3.0003924   0.98412991    3.7305263 
       0.045   -4.3154832     1.325381   -2.9901022   0.89071301    4.2365464 
        0.05   -4.1958399    1.2157971   -2.9800428   0.81706793    4.6366981 
       0.055   -4.1197008    1.1471692   -2.9725316   0.77094703    4.8881874 
        0.06   -4.0880823    1.1234004   -2.9646819    0.7549734    4.9821963 
       0.065   -4.0959603    1.1403877   -2.9555726   0.76638962      4.93352 
        0.07   -4.1335398    1.1884943   -2.9450455   0.79871929    4.7741243 
       0.075   -4.1872619    1.2559533   -2.9313086   0.84405465    4.5455922 
        0.08   -4.2492518    1.3315557   -2.9176961    0.8948627    4.2794493 
       0.085   -4.3086741     1.406268   -2.9024061   0.94507257    4.0080969 
        0.09   -4.3607761    1.4740132   -2.8867629   0.99060026    3.7494061 
       0.095   -4.4043357    1.5318654   -2.8724704    1.0294794    3.5108231 
         0.1   -4.4394057    1.5796514   -2.8597543    1.0615937    3.2938778 
       0.105   -4.4658659    1.6189582   -2.8469078    1.0880095    3.0979421 
        0.11   -4.4866827    1.6520533   -2.8346294    1.1102509    2.9166309 
       0.115   -4.5058989    1.6811869    -2.824712    1.1298299    2.7418444 
        0.12   -4.5239904    1.7083336   -2.8156568    1.1480736    2.5711922 
       0.125   -4.5412911    1.7351638   -2.8061273    1.1661047    2.4026843 
        0.13   -4.5588797    1.7630081   -2.7958716    1.1848173    2.2335292 
       0.135   -4.5791739    1.7927632   -2.7864106     1.204814    2.0594447 
        0.14   -4.5977493    1.8248237   -2.7729256      1.22636    1.8871987 
       0.145   -4.6191972    1.8591445   -2.7600527    1.2494251    1.7103809 
        0.15   -4.6428632    1.8953469   -2.7475163    1.2737546    1.5309371 
       0.155    -4.665425    1.9329015   -2.7325235    1.2989929    1.3549468 
        0.16   -4.6863726      1.97127   -2.7151025    1.3247783    1.1841993 
       0.165   -4.7078619    2.0099432   -2.6979187    1.3507683    1.0164019 
        0.17   -4.7273199    2.0484665   -2.6788534    1.3766576   0.85619824 
       0.175   -4.7460799    2.0864436   -2.6596364    1.4021798   0.70221807 
        0.18   -4.7623135    2.1235689   -2.6387446    1.4271296   0.55764345 
       0.185   -4.7765948    2.1595568    -2.617038    1.4513151   0.42211623 
        0.19   -4.7902438     2.193952   -2.5962918    1.4744301   0.29446603 
       0.195   -4.7991512    2.2259608   -2.5731904    1.4959414   0.18191555 
         0.2   -4.8061855    2.2544401   -2.5517454    1.5150807   0.08190217 
       0.205   -4.8086745    2.2780843   -2.5305902    1.5309707 0.00011836617 
        0.21   -4.8050788    2.2956845   -2.5093944    1.5427987 -0.059648972 
       0.215    -4.795017    2.3063824   -2.4886346    1.5499882 -0.095841818 
        0.22   -4.7781327    2.3097887   -2.4683439    1.5522774  -0.10767584 
       0.225   -4.7552235    2.3060929   -2.4491306    1.5497936 -0.096849758 
        0.23   -4.7269494    2.2961492   -2.4308002     1.543111 -0.065755476 
       0.235   -4.6948996    2.2814165   -2.4134831      1.53321 -0.018928625 
        0.24   -4.6609678    2.2636971   -2.3972707    1.5213018  0.038278734 
       0.245   -4.6275158    2.2446385   -2.3828774    1.5084936    0.1001228 
        0.25   -4.5942145    2.2253426   -2.3688719    1.4955259   0.16543981 
       0.255   -4.5605425     2.206374   -2.3541685    1.4827782   0.23406535 
        0.26   -4.5281838    2.1881224   -2.3400614    1.4705124   0.30303478 
       0.265   -4.4973252     2.171027   -2.3262982    1.4590235   0.37145466 
        0.27   -4.4686983    2.1555215   -2.3131767    1.4486032   0.43768547 
       0.275   -4.4416836    2.1418839   -2.2997997    1.4394381   0.50221003 
        0.28   -4.4166802    2.1302165   -2.2864636    1.4315971   0.56426889 
       0.285   -4.3930366    2.1204296    -2.272607    1.4250199   0.62474482 
        0.29   -4.3697813    2.1119764   -2.2578048     1.419339    0.6853906 
       0.295   -4.3468728     2.103707   -2.2431658    1.4137816   0.74726614 
         0.3     -4.32244    2.0942053   -2.2282348     1.407396   0.81413271 
       0.305   -4.2944567    2.0825416   -2.2119151    1.3995575    0.8891401 
        0.31   -4.2643896    2.0690374   -2.1953522    1.3904821   0.96890473 
       0.315   -4.2354815    2.0556285   -2.1798529    1.3814708    1.0455938 
        0.32   -4.2087741    2.0455528   -2.1632213    1.3746995     1.112937 
       0.325   -4.1891634    2.0423718   -2.1467916    1.3725617     1.159294 
        0.33   -4.1788196    2.0485438   -2.1302758    1.3767096    1.1786502 
       0.335   -4.1774879    2.0642583   -2.1132296    1.3872704    1.1715383 
        0.34   -4.1841466    2.0872609   -2.0968857    1.4027291    1.1428349 
       0.345   -4.1926135    2.1136295   -2.0789841    1.4204499    1.1066815 
        0.35   -4.1992483    2.1389967   -2.0602516    1.4374978    1.0741413 
       0.355   -4.2002354    2.1597978   -2.0404377     1.451477    1.0552714 
        0.36   -4.1950803    2.1740124   -2.0210679    1.4610298    1.0533789 
       0.365   -4.1836401    2.1813063   -2.0023338    1.4659317    1.0689564 
        0.37   -4.1663696    2.1830589   -1.9833107    1.4671095    1.0994834 
       0.375   -4.1476745    2.1824391   -1.9652354     1.466693    1.1348428 
        0.38   -4.1308216    2.1838935   -1.9469281    1.4676704    1.1649951 
       0.385   -4.1210228    2.1913715   -1.9296513    1.4726959     1.178152 
        0.39   -4.1191684    2.2063267   -1.9128417    1.4827464    1.1717189 
       0.395    -4.124482    2.2271613   -1.8973207    1.4967482     1.149225 
         0.4   -4.1315134     2.250079   -1.8814344    1.5121499    1.1231844 
       0.405   -4.1358702    2.2708802   -1.8649899    1.5261292    1.1049883 
        0.41   -4.1359266    2.2870765   -1.8488501    1.5370138    1.1000101 
       0.415   -4.1302094    2.2986895   -1.8315199    1.5448182    1.1101411 
        0.42   -4.1236574    2.3072112   -1.8164461    1.5505452    1.1266563 
       0.425   -4.1177669    2.3142028   -1.8035642    1.5552438    1.1453655 
        0.43   -4.1111368    2.3207583   -1.7903786    1.5596494    1.1665226 
       0.435   -4.1064023    2.3276805   -1.7787218    1.5643014    1.1852864 
        0.44   -4.1019967    2.3354773   -1.7665193    1.5695412    1.2028102 
       0.445   -4.0993288    2.3441167   -1.7552121    1.5753473    1.2169517 
        0.45   -4.0980485    2.3531534   -1.7448951    1.5814203    1.2284767 
       0.455   -4.0977967    2.3622314   -1.7355653    1.5875211    1.2380669 
        0.46   -4.0982794    2.3712677   -1.7270117    1.5935939    1.2459601 
       0.465   -4.0990654    2.3798655   -1.7191998     1.599372    1.2530059 
        0.47   -4.0992822    2.3866289   -1.7126533    1.6039173    1.2618942 
       0.475   -4.0962813     2.389632   -1.7066493    1.6059355    1.2782423 
        0.48   -4.0903237    2.3878417    -1.702482    1.6047323    1.3026514 
       0.485   -4.0790982     2.381894   -1.6972042    1.6007352    1.3370864 
        0.49   -4.0670742    2.3736024   -1.6934718    1.5951629    1.3731053 
       0.495    -4.056071    2.3648996   -1.6911714    1.5893142    1.4056293 
         0.5   -4.0462989    2.3570899    -1.689209    1.5840658     1.432619 
       0.505   -4.0392747    2.3506072   -1.6886676    1.5797091     1.451503 
        0.51   -4.0340836     2.345437   -1.6886467    1.5762345    1.4635739 
       0.515   -4.0307527    2.3419285   -1.6888242    1.5738767    1.4686626 
        0.52   -4.0298486    2.3411771   -1.6886715    1.5733717    1.4651187 
       0.525   -4.0355254    2.3443621   -1.6911634    1.5755121    1.4465352 
        0.53   -4.0445127    2.3511334   -1.6933793    1.5800628    1.4180557 
       0.535   -4.0540663    2.3585194   -1.6955469    1.5850265    1.3871776 
        0.54    -4.061178    2.3618349   -1.6993431    1.5872546    1.3634851 
       0.545   -4.0610598    2.3571548    -1.703905    1.5841094    1.3576378 
        0.55   -4.0519707    2.3432462   -1.7087245    1.5747622     1.372833 
       0.555   -4.0355751    2.3218658   -1.7137093    1.5603937    1.4040561 
        0.56   -4.0157164     2.296859   -1.7188574    1.5435881    1.4409714 
       0.565   -3.9980841    2.2727725   -1.7253116    1.5274009    1.4701066 
        0.57   -3.9848793    2.2537361   -1.7311432    1.5146076    1.4832037 
       0.575   -3.9804694     2.242629   -1.7378404    1.5071431    1.4710098 
        0.58   -3.9856006    2.2402566    -1.745344    1.5055488    1.4317298 
       0.585   -3.9975905    2.2449437   -1.7526469    1.5086987    1.3712552 
        0.59   -4.0129723    2.2530936   -1.7598786    1.5141758    1.2989858 
       0.595   -4.0289132    2.2606481   -1.7682651    1.5192527    1.2241019 
         0.6   -4.0401581     2.264557   -1.7756011    1.5218797     1.157696 
       0.605   -4.0464549    2.2633453   -1.7831096    1.5210654    1.1024889 
        0.61   -4.0475669    2.2569949    -1.790572    1.5167976    1.0593545 
       0.615   -4.0436529    2.2465609    -1.797092    1.5097855    1.0272955 
        0.62    -4.037796    2.2337044   -1.8040916    1.5011454    1.0007647 
       0.625    -4.032011    2.2201901   -1.8118209    1.4920633   0.97541296 
        0.63   -4.0278132    2.2073238   -1.8204894    1.4834165   0.94804314 
       0.635   -4.0244785    2.1956071   -1.8288713    1.4755424   0.91926136 
        0.64   -4.0214445    2.1846758   -1.8367687    1.4681961   0.89047945 
       0.645   -4.0186361    2.1734991    -1.845137    1.4606849   0.86322641 
        0.65   -4.0132079     2.160738   -1.8524699    1.4521089   0.84281387 
       0.655   -4.0057129    2.1452053   -1.8605076    1.4416702   0.83003223 
        0.66   -3.9939251    2.1263159   -1.8676093    1.4289757   0.82842158 
       0.665   -3.9784387    2.1043622   -1.8740765    1.4142219   0.83684446 
        0.67   -3.9610551    2.0805533   -1.8805017    1.3982213    0.8515314 
       0.675   -3.9429413    2.0566291   -1.8863122    1.3821432   0.86887617 
        0.68    -3.923765    2.0341362   -1.8896288     1.367027   0.88737976 
       0.685   -3.9079098    2.0137874   -1.8941224    1.3533517   0.90066563 
        0.69   -3.8923456    1.9954677    -1.896878    1.3410401   0.91262363 
       0.695   -3.8775691    1.9790312    -1.898538    1.3299941   0.92286317 
         0.7   -3.8646989    1.9650289     -1.89967    1.3205839   0.92951713 
       0.705   -3.8535122    1.9544131   -1.8990991    1.3134497   0.93202242 
        0.71   -3.8445048    1.9474871   -1.8970177    1.3087951   0.92978223 
       0.715   -3.8360021    1.9433532   -1.8926489    1.3060169   0.92628439 
        0.72   -3.8295426    1.9405701   -1.8889724    1.3041466   0.92166656 
       0.725   -3.8205918    1.9380923   -1.8824995    1.3024814   0.92307034 
        0.73   -3.8095585    1.9357216   -1.8738369    1.3008882   0.93042833 
       0.735   -3.7975889    1.9341158   -1.8634731     1.299809   0.94173131 
        0.74   -3.7871953    1.9345071   -1.8526882     1.300072   0.95257664 
       0.745   -3.7784763    1.9383141   -1.8401621    1.3026305   0.96129418 
        0.75   -3.7703275    1.9466592   -1.8236683    1.3082387    0.9679705 
       0.755   -3.7665804    1.9599633   -1.8066171    1.3171796   0.96738522 
        0.76   -3.7653657    1.9777395   -1.7876262     1.329126   0.96231283 
       0.765    -3.766015    1.9987088   -1.7673062    1.3432183   0.95486087 
        0.77   -3.7674276    2.0211987   -1.7462289    1.3583325   0.94797934 
       0.775   -3.7667577    2.0436734   -1.7230843    1.3734364   0.94645236 
        0.78    -3.765187    2.0651581   -1.7000289    1.3878751   0.94936769 
       0.785   -3.7620591    2.0853843   -1.6766748     1.401468   0.95712691 
        0.79   -3.7577415    2.1047076   -1.6530339     1.414454   0.96810687 
       0.795   -3.7524027     2.123846   -1.6285566    1.4273159   0.98055915 
         0.8   -3.7487769    2.1435121   -1.6052648    1.4405323   0.98967798 
       0.805   -3.7477917    2.1641046   -1.5836871    1.4543714   0.99331565 
        0.81   -3.7492884    2.1855404    -1.563748    1.4687772   0.99137393 
       0.815   -3.7523127    2.2072598   -1.5450529    1.4833735   0.98545522 
        0.82   -3.7560181    2.2284838   -1.5275343     1.497637   0.97740317 
       0.825   -3.7590683    2.2485779   -1.5104904     1.511141   0.96957799 
        0.83   -3.7627626    2.2671226     -1.49564    1.5236039   0.96100077 
       0.835    -3.765841     2.283627    -1.482214    1.5346956   0.95387957 
        0.84   -3.7669758    2.2974572   -1.4695186      1.54399   0.95061664 
       0.845   -3.7654907    2.3081285   -1.4573622    1.5511616   0.95261581 
        0.85    -3.762852    2.3154769   -1.4473751       1.5561   0.95825862 
       0.855   -3.7582703    2.3195464   -1.4387239     1.558835   0.96836782 
        0.86   -3.7521118    2.3204102   -1.4317016    1.5594155   0.98228832 
       0.865   -3.7431937    2.3183164   -1.4248773    1.5580083    1.0010081 
        0.87   -3.7337946     2.314086   -1.4197086    1.5551653    1.0207508 
       0.875   -3.7238736    2.3091676    -1.414706      1.55186    1.0398897 
        0.88   -3.7165984    2.3050725   -1.4115259    1.5491079    1.0529792 
       0.885   -3.7098615    2.3025069   -1.4073546    1.5473837    1.0618649 
        0.89   -3.7049089    2.3009604   -1.4039485    1.5463444    1.0656871 
       0.895   -3.6998865    2.2989482   -1.4009383    1.5449921    1.0683385 
         0.9   -3.6935247    2.2944707    -1.399054     1.541983    1.0734096 
       0.905   -3.6830388    2.2857438    -1.397295    1.5361181    1.0858926 
        0.91   -3.6673631    2.2721066   -1.3952565    1.5269533    1.1073184 
       0.915   -3.6490028    2.2550022   -1.3940006    1.5154585    1.1325569 
        0.92   -3.6311136    2.2387334   -1.3923801    1.5045252    1.1526559 
       0.925   -3.6215065    2.2299908   -1.3915157    1.4986497     1.150664 
        0.93   -3.6261324    2.2350667   -1.3910657     1.502061    1.1125779 
       0.935   -3.6465583    2.2559765   -1.3905818    1.5161132     1.034778 
        0.94   -3.6797614    2.2890918   -1.3906697    1.5383681   0.92577078 
       0.945   -3.7176337    2.3273075   -1.3903261    1.5640508   0.80410407 
        0.95   -3.7533238    2.3631749   -1.3901489    1.5881552    0.6872169 
       0.955   -3.7817218    2.3908829   -1.3908389    1.6067762   0.58864919 
        0.96   -3.7987539     2.406922   -1.3918319    1.6175551   0.51798528 
       0.965   -3.8030672    2.4101853   -1.3928819    1.6197482   0.47867126 
        0.97   -3.7981931    2.4019275   -1.3962656    1.6141986   0.46549703 
       0.975   -3.7858626    2.3855488   -1.4003138    1.6031914   0.47277862 
        0.98   -3.7699787    2.3660086   -1.4039701    1.5900595   0.49043086 
       0.985   -3.7575573    2.3486055   -1.4089517    1.5783639   0.50426171 
        0.99   -3.7518725    2.3373994   -1.4144731    1.5708329   0.50584766 
       0.995   -3.7540146    2.3338504   -1.4201643    1.5684478   0.49229687 
           1   -3.7638245    2.3361173   -1.4277072    1.5699713    0.4659024 
       1.005   -3.7759036    2.3397162   -1.4361874    1.5723899   0.43815658 
        1.01   -3.7845636    2.3395832   -1.4449804    1.5723005   0.42159609 
       1.015     -3.78619    2.3322449   -1.4539451    1.5673689   0.42451074 
        1.02   -3.7794771    2.3166353   -1.4628418    1.5568785   0.44977391 
       1.025   -3.7674242    2.2934417   -1.4739825    1.5412915   0.49313507 
        1.03   -3.7492999    2.2641108   -1.4851891    1.5215799    0.5536655 
       1.035   -3.7258657    2.2302175   -1.4956482    1.4988021   0.62822486 
        1.04   -3.7002744    2.1932767   -1.5069978    1.4739762   0.71070483 
       1.045    -3.672875    2.1547689   -1.5181061    1.4480974   0.79817436 
        1.05   -3.6451809    2.1164363   -1.5287445    1.4223362   0.88592799 
       1.055   -3.6193645    2.0805895    -1.538775    1.3982457    0.9678684 
        1.06   -3.5969961    2.0497946   -1.5472015    1.3775501    1.0383886 
       1.065   -3.5830643    2.0260838   -1.5569805    1.3616155    1.0886025 
        1.07    -3.575562    2.0105496   -1.5650124    1.3511758    1.1191739 
       1.075   -3.5767021     2.003645   -1.5730571    1.3465356    1.1268062 
        1.08   -3.5862591    2.0054973   -1.5807618    1.3477804    1.1117082 
       1.085   -3.6028882    2.0154626   -1.5874256    1.3544776    1.0765077 
        1.09   -3.6251166    2.0313843   -1.5937323    1.3651776    1.0259024 
       1.095    -3.649156    2.0496141   -1.5995418    1.3774289   0.96911539 
         1.1   -3.6699965    2.0661056   -1.6038909    1.3885118   0.91726845 
       1.105   -3.6850833    2.0777968   -1.6072864    1.3963688   0.87749248 
        1.11   -3.6933622    2.0833415   -1.6100208    1.4000951   0.85316638 
       1.115   -3.6951404    2.0830128   -1.6121276    1.3998742   0.84408589 
        1.12   -3.6929626    2.0781497   -1.6148129     1.396606   0.84603515 
       1.125   -3.6863504    2.0705218   -1.6158287    1.3914797   0.85772571 
        1.13   -3.6784526    2.0618888   -1.6165638     1.385678   0.87352057 
       1.135   -3.6695519    2.0538056   -1.6157463    1.3802457   0.89133824 
        1.14    -3.662281    2.0475471   -1.6147339    1.3760397   0.90660503 
       1.145   -3.6568841    2.0441006   -1.6127836    1.3737235   0.91794945 
        1.15   -3.6549676    2.0441212   -1.6108464    1.3737374   0.92288356 
       1.155   -3.6547623    2.0479092   -1.6068531     1.376283   0.92335157 
        1.16   -3.6582453    2.0554417   -1.6028035    1.3813453   0.91732873 
       1.165   -3.6621357    2.0662706   -1.5958651    1.3886227   0.90955713 
        1.17   -3.6674033    2.0793981   -1.5880052    1.3974449   0.90044302 
       1.175   -3.6726371    2.0935425   -1.5790946    1.4069506    0.8935422 
        1.18   -3.6755792    2.1077246   -1.5678546    1.4164816   0.89309925 
       1.185    -3.676478    2.1216037   -1.5548743     1.425809   0.89963447 
        1.19   -3.6748653    2.1353707   -1.5394946    1.4350609   0.91384279 
       1.195   -3.6728616     2.149301   -1.5235605    1.4444227    0.9332018 
         1.2   -3.6693812    2.1631853   -1.5061959    1.4537536   0.95940275 
       1.205   -3.6626891    2.1758765   -1.4868125    1.4622826   0.99573126 
        1.21   -3.6500285    2.1853429   -1.4646856    1.4686444    1.0473164 
       1.215   -3.6309034    2.1895519   -1.4413515     1.471473    1.1163298 
        1.22   -3.6044649    2.1877506   -1.4167143    1.4702625    1.2037141 
       1.225   -3.5732684    2.1814778   -1.3917906    1.4660469     1.303658 
        1.23   -3.5407588    2.1748996   -1.3658592    1.4616261    1.4063451 
       1.235   -3.5139136    2.1739553   -1.3399582    1.4609915    1.4959415 
        1.24   -3.4982612    2.1840034   -1.3142577    1.4677442    1.5590864 
       1.245   -3.4950352    2.2070273   -1.2880079    1.4832173    1.5914133 
        1.25   -3.5022534     2.240404   -1.2618494    1.5056479    1.5975948 
       1.255   -3.5149732    2.2784115   -1.2365617    1.5311905     1.589316 
        1.26   -3.5276194    2.3150963   -1.2125232    1.5558443    1.5793123 
       1.265   -3.5366131    2.3463823   -1.1902308    1.5768699    1.5759465 
        1.27    -3.540299    2.3706351   -1.1696638    1.5931688    1.5826971 
       1.275   -3.5381429    2.3880607   -1.1500822    1.6048795    1.5997342 
        1.28   -3.5318273    2.3996169   -1.1322105    1.6126457    1.6237648 
       1.285   -3.5234698    2.4060857   -1.1173841    1.6169931    1.6510908 
        1.29   -3.5122262    2.4078625   -1.1043637    1.6181871    1.6819065 
       1.295   -3.4983202     2.405421   -1.0928992    1.6165464    1.7151226 
         1.3   -3.4830267    2.3999043   -1.0831224    1.6128389    1.7477402 
       1.305   -3.4694078    2.3932856   -1.0761222    1.6083909    1.7739012 
        1.31   -3.4575846    2.3876971   -1.0698875    1.6046352    1.7912316 
       1.315   -3.4488428    2.3842539   -1.0645888    1.6023212    1.7972259 
        1.32   -3.4441829    2.3824261   -1.0617568    1.6010928    1.7916169 
       1.325   -3.4409132    2.3806632     -1.06025    1.5999081    1.7796799 
        1.33   -3.4371053    2.3780238   -1.0590815    1.5981343    1.7652126 
       1.335   -3.4343531    2.3755008   -1.0588523    1.5964387    1.7457898 
        1.34   -3.4344557    2.3757454   -1.0587103    1.5966031    1.7169341 
       1.345   -3.4414791     2.381199   -1.0602802    1.6002681    1.6717594 
        1.35    -3.455574    2.3923329   -1.0632411    1.6077506    1.6100652 
       1.355   -3.4738438    2.4075051   -1.0663388     1.617947    1.5374764 
        1.36   -3.4949598    2.4238443   -1.0711155    1.6289276    1.4590622 
       1.365   -3.5151325    2.4380524   -1.0770801    1.6384761    1.3831494 
        1.37    -3.530489    2.4468665   -1.0836224    1.6443996     1.318107 
       1.375   -3.5389582    2.4475602    -1.091398    1.6448657    1.2695629 
        1.38   -3.5383909    2.4386558   -1.0997352    1.6388816    1.2417243 
       1.385   -3.5305413    2.4205218   -1.1100195    1.6266948    1.2321881 
        1.39   -3.5145822    2.3952073   -1.1193749    1.6096823    1.2396152 
       1.395   -3.4961352    2.3653717   -1.1307635    1.5896315    1.2544756 
         1.4   -3.4756452    2.3330146   -1.1426306    1.5678862    1.2738679 
       1.405   -3.4536205    2.2990245   -1.1545959    1.5450434    1.2959815 
        1.41   -3.4307696    2.2639818   -1.1667878    1.5214931    1.3190992 
       1.415   -3.4085828    2.2291395   -1.1794432    1.4980776    1.3399491 
        1.42    -3.387788    2.1962269   -1.1915611     1.475959    1.3557073 
       1.425   -3.3710309    2.1664698   -1.2045611    1.4559609    1.3619882 
        1.43   -3.3574979    2.1402611   -1.2172368    1.4383475    1.3593151 
       1.435    -3.346398    2.1174587   -1.2289393    1.4230233    1.3487137 
        1.44   -3.3372931    2.0974267   -1.2398663     1.409561    1.3312779 
       1.445   -3.3301492    2.0789707   -1.2511785    1.3971577    1.3082323 
        1.45   -3.3227103    2.0610963    -1.261614    1.3851454    1.2830961 
       1.455   -3.3149575    2.0446033   -1.2703542    1.3740614    1.2550046 
        1.46   -3.3116668    2.0331004   -1.2785663    1.3663309    1.2149627 
       1.465   -3.3168118    2.0317081   -1.2851038    1.3653952    1.1535678 
        1.47   -3.3348043    2.0436437   -1.2911606    1.3734165    1.0631386 
       1.475   -3.3640985    2.0673074   -1.2967911    1.3893195   0.94788007 
        1.48   -3.3967854    2.0965982   -1.3001872    1.4090042   0.82378394 
       1.485   -3.4284311    2.1243751   -1.3040561    1.4276714   0.70385451 
        1.49   -3.4510509    2.1461413   -1.3049096    1.4422992   0.60208182 
       1.495   -3.4672704     2.161557   -1.3057134    1.4526593   0.51625391 
         1.5   -3.4783813    2.1734635   -1.3049178     1.460661   0.44236951 
       1.505   -3.4895431     2.185487   -1.3040561    1.4687412   0.37129931 
        1.51    -3.503768    2.1997322   -1.3040358    1.4783146   0.29782748 
       1.515    -3.518232    2.2158433   -1.3023887     1.489142    0.2257235 
        1.52   -3.5327652    2.2316315   -1.3011337    1.4997523   0.15763695 
       1.525   -3.5448495    2.2445392   -1.3003103    1.5084269  0.099051162 
        1.53   -3.5514532       2.2529   -1.2985532    1.5140457    0.0550495 
       1.535   -3.5520286    2.2563158   -1.2957128    1.5163412  0.026640001 
        1.54   -3.5491796    2.2553495   -1.2938301    1.5156919  0.010325654 
       1.545   -3.5424001    2.2510082   -1.2913919    1.5127743 0.0055161781 
        1.55   -3.5333101    2.2442649   -1.2890452    1.5082425 0.0092589312 
       1.555   -3.5221929    2.2358239    -1.286369    1.5025698  0.020332404 
        1.56   -3.5106489    2.2260309    -1.284618    1.4959885  0.036428536 
       1.565   -3.4983694    2.2149391   -1.2834303    1.4885343  0.057588857 
        1.57   -3.4840949     2.202576   -1.2815189    1.4802258  0.084945663 
       1.575   -3.4677512    2.1892661   -1.2784851     1.471281   0.11804744 
        1.58   -3.4506152    2.1760383   -1.2745769    1.4623914   0.15429838 
       1.585   -3.4352212    2.1649069   -1.2703143    1.4549106   0.18881849 
        1.59   -3.4237658    2.1586747   -1.2650911    1.4507222   0.21640005 
       1.595   -3.4188974    2.1600345   -1.2588629    1.4516361   0.23157719 
         1.6   -3.4224618    2.1702107    -1.252251    1.4584749   0.23134774 
       1.605   -3.4319989    2.1880152   -1.2439837    1.4704403   0.21988729 
        1.61   -3.4452618     2.210147   -1.2351148    1.4853138    0.2033041 
       1.615   -3.4566205    2.2324767   -1.2241438    1.5003203   0.19220944 
        1.62   -3.4639465    2.2514139   -1.2125325     1.513047   0.19278769 
       1.625   -3.4640293    2.2647046   -1.1993247    1.5219789   0.21099138 
        1.63   -3.4574095    2.2714776   -1.1859319    1.5265307   0.24710754 
       1.635   -3.4434284    2.2719985   -1.1714298    1.5268807   0.30141121 
        1.64   -3.4238457    2.2673067   -1.1565391    1.5237276   0.37061806 
       1.645   -3.3993642    2.2588181   -1.1405461    1.5180229   0.45207966 
        1.65    -3.371729    2.2479775   -1.1237515    1.5107375   0.54186409 
       1.655   -3.3424131    2.2359753   -1.1064378    1.5026716    0.6364905 
        1.66   -3.3128053    2.2236871   -1.0891182    1.4944134    0.7328589 
       1.665   -3.2829058    2.2119108    -1.070995    1.4864992   0.82947675 
        1.67   -3.2534379    2.2018831   -1.0515548    1.4797601   0.92365743 
       1.675   -3.2278483    2.1955467   -1.0323016    1.4755018    1.0090729 
        1.68   -3.2076711    2.1949669   -1.0127042    1.4751122    1.0814335 
       1.685   -3.1940984    2.2013593  -0.99273905    1.4794081    1.1378029 
        1.69    -3.186606    2.2147966  -0.97180938    1.4884386    1.1784153 
       1.695   -3.1848934    2.2346265  -0.95026686    1.5017651    1.2040407 
         1.7   -3.1888276    2.2597162   -0.9291114    1.5186265    1.2157931 
       1.705   -3.1962508    2.2882488  -0.90800197    1.5378016    1.2177637 
        1.71   -3.2054684    2.3178375   -0.8876309    1.5576865    1.2141273 
       1.715   -3.2144915    2.3463412  -0.86815027    1.5768422    1.2091299 
        1.72   -3.2208683    2.3726615  -0.84820677    1.5945306    1.2064651 
       1.725    -3.226688    2.3968234  -0.82986462    1.6107684    1.2036924 
        1.73   -3.2312019    2.4194248  -0.81177713    1.6259575    1.2009528 
       1.735    -3.236347    2.4410993  -0.79524767    1.6405238    1.1954266 
        1.74   -3.2436742    2.4623796  -0.78129458     1.654825     1.184865 
       1.745   -3.2516203    2.4838197   -0.7678006    1.6692337    1.1705238 
        1.75   -3.2612223    2.5059468  -0.75527554     1.684104    1.1508626 
       1.755    -3.274563     2.529045  -0.74551807     1.699627    1.1234383 
        1.76   -3.2909449    2.5529335  -0.73801144    1.7156811    1.0893983 
       1.765   -3.3083458    2.5767862  -0.73155959    1.7317112    1.0520564 
        1.77   -3.3253247    2.5991991  -0.72612566    1.7467736    1.0147307 
       1.775   -3.3431148    2.6185795  -0.72453528    1.7597981   0.97798298 
        1.78   -3.3578903    2.6335817  -0.72430865    1.7698802   0.94769444 
       1.785   -3.3701309    2.6431211  -0.72700984     1.776291    0.9247134 
        1.79   -3.3778108    2.6458744  -0.73193645    1.7781414   0.91292939 
       1.795   -3.3800364    2.6399188  -0.74011758     1.774139   0.91554485 
         1.8   -3.3728372    2.6231213  -0.74971582    1.7628504   0.93931529 
       1.805   -3.3566206    2.5940347  -0.76258581    1.7433029   0.98531268 
        1.81   -3.3289677    2.5527805  -0.77618719    1.7155783    1.0560146 
       1.815   -3.2929855    2.5015543   -0.7914312    1.6811521     1.145469 
        1.82   -3.2522946    2.4447668  -0.80752782    1.6429884    1.2447284 
       1.825    -3.212712    2.3886997  -0.82401226    1.6053089    1.3403956 
        1.83   -3.1827566    2.3404082  -0.84234838     1.572855    1.4151753 
       1.835   -3.1659777    2.3061739  -0.85980382     1.549848     1.458132 
        1.84   -3.1684252    2.2899738  -0.87845139    1.5389609    1.4580772 
       1.845   -3.1888321    2.2921442  -0.89668798    1.5404195    1.4159024 
        1.85   -3.2239392    2.3086036  -0.91533561    1.5514809    1.3396523 
       1.855   -3.2652074    2.3315698  -0.93363761    1.5669152    1.2475278 
        1.86   -3.3039976    2.3522096  -0.95178791    1.5807861     1.159116 
       1.865   -3.3342913    2.3636983  -0.97059295     1.588507    1.0890524 
        1.87   -3.3523567    2.3626555  -0.98970112    1.5878061    1.0458015 
       1.875   -3.3576301    2.3491187   -1.0085114    1.5787088    1.0305923 
        1.88   -3.3526624    2.3262639   -1.0263985    1.5633494    1.0376979 
       1.885    -3.343465    2.3001538   -1.0433112    1.5458023    1.0542908 
        1.89   -3.3386877     2.278637   -1.0600508    1.5313421    1.0625645 
       1.895   -3.3450586    2.2683569   -1.0767016    1.5244334    1.0479843 
         1.9   -3.3648437    2.2712695   -1.0935742    1.5263908    1.0059036 
       1.905   -3.3939567    2.2842254   -1.1097313    1.5350977   0.94421292 
        1.91   -3.4263124    2.3019921   -1.1243203    1.5470377   0.87530277 
       1.915   -3.4593594    2.3199606   -1.1393989    1.5591133   0.80713278 
        1.92   -3.4882175    2.3346975     -1.15352    1.5690171   0.74917816 
       1.925   -3.5112523    2.3437567   -1.1674956    1.5751053   0.70630489 
        1.93   -3.5269326    2.3457128   -1.1812197    1.5764199   0.68211648 
       1.935   -3.5340758    2.3402019   -1.1938739    1.5727163   0.67853278 
        1.94   -3.5346097    2.3277165   -1.2068933    1.5643256   0.69292957 
       1.945   -3.5274784    2.3090709   -1.2184075     1.551795   0.72544655 
        1.95    -3.514209    2.2849795   -1.2292295    1.5356045   0.77323927 
       1.955   -3.4959119    2.2560265   -1.2398854    1.5161469   0.83384352 
        1.96   -3.4722603     2.223071   -1.2491893    1.4939993   0.90593847 
       1.965    -3.445809    2.1875966   -1.2582124     1.470159   0.98419809 
        1.97   -3.4182114    2.1517044    -1.266507    1.4460379    1.0635659 
       1.975   -3.3906529    2.1179462   -1.2727068    1.4233509    1.1390363 
        1.98     -3.36764    2.0891522   -1.2784878    1.4040001     1.201661 
       1.985   -3.3506711    2.0682352   -1.2824359     1.389943    1.2458959 
        1.99   -3.3444744    2.0579121   -1.2865623    1.3830054    1.2630368 
       1.995   -3.3496822     2.060238   -1.2894442    1.3845686    1.2500107 
           2    -3.367612     2.075731   -1.2918811    1.3949805     1.204934 
       2.005   -3.3965631    2.1025549   -1.2940081    1.4130073    1.1321711 
        2.01   -3.4309346    2.1364729   -1.2944617    1.4358017     1.043357 
       2.015   -3.4676081    2.1718274   -1.2957807    1.4595614   0.94906532 
        2.02   -3.4991939    2.2029957   -1.2961982    1.4805079   0.86464053 
       2.025   -3.5205873    2.2256801   -1.2949072    1.4957528   0.80141447 
        2.03   -3.5313763     2.237687   -1.2936893    1.5038219   0.76312626 
       2.035   -3.5322946    2.2391638   -1.2931308    1.5048144   0.74951791 
        2.04   -3.5255854    2.2324452   -1.2931402    1.5002992   0.75609616 
       2.045   -3.5135094    2.2213134   -1.2921961    1.4928181   0.77660692 
        2.05   -3.5017276    2.2096792   -1.2920484    1.4849995   0.80062814 
       2.055   -3.4901312    2.2001752    -1.289956    1.4786124   0.82536284 
        2.06   -3.4836144    2.1933162   -1.2902981    1.4740029   0.84447041 
       2.065   -3.4766237    2.1877113   -1.2889124    1.4702361     0.865232 
        2.07   -3.4689994    2.1812311   -1.2877683    1.4658811   0.88964087 
       2.075   -3.4588219    2.1724654   -1.2863565    1.4599902   0.92097763 
        2.08   -3.4467362    2.1615299   -1.2852063    1.4526411    0.9581089 
       2.085   -3.4324772    2.1498575   -1.2826197    1.4447967   0.99964455 
        2.09   -3.4189213    2.1392496   -1.2796717    1.4376677    1.0403717 
       2.095   -3.4074661    2.1308374   -1.2766287    1.4320144    1.0774428 
         2.1    -3.396897    2.1244806   -1.2724163    1.4277424    1.1122655 
       2.105   -3.3873936    2.1187583   -1.2686354    1.4238967    1.1459601 
        2.11   -3.3774528    2.1117724   -1.2656805    1.4192019    1.1819269 
       2.115   -3.3631554    2.1026133   -1.2605421    1.4130466    1.2252096 
        2.12   -3.3478975    2.0926609   -1.2552366    1.4063581    1.2702426 
       2.125   -3.3337188     2.085545   -1.2481738    1.4015759    1.3106575 
        2.13   -3.3245716    2.0849231   -1.2396485     1.401158    1.3379247 
       2.135   -3.3235184     2.091663   -1.2318554    1.4056875     1.347563 
        2.14   -3.3261635    2.1037033   -1.2224602    1.4137791    1.3467406 
       2.145   -3.3310824    2.1185827   -1.2124997    1.4237787    1.3397303 
        2.15   -3.3371436    2.1353818   -1.2017617    1.4350684    1.3288636 
       2.155   -3.3443758      2.15453   -1.1898458    1.4479368    1.3138522 
        2.16    -3.355718    2.1765282   -1.1791898    1.4627206    1.2910838 
       2.165   -3.3664499    2.2009258    -1.165524    1.4791168    1.2664617 
        2.17    -3.377915    2.2261883   -1.1517267    1.4960943    1.2400562 
       2.175   -3.3887296    2.2505692   -1.1381604    1.5124793     1.215102 
        2.18   -3.3970822    2.2733701   -1.1237121    1.5278025     1.194123 
       2.185   -3.4054696    2.2955128   -1.1099568    1.5426833    1.1730923 
        2.19   -3.4143042    2.3190994   -1.0952048    1.5585345    1.1491884 
       2.195   -3.4261466    2.3465248   -1.0796218    1.5769656    1.1169852 
         2.2   -3.4435299    2.3794972   -1.0640328    1.5991244    1.0719292 
       2.205    -3.466608    2.4179644   -1.0486436    1.6249761     1.014182 
        2.21   -3.4926451    2.4592856   -1.0333595    1.6527457   0.95003085 
       2.215   -3.5168029    2.4984989    -1.018304    1.6790987   0.89052949 
        2.22    -3.534531    2.5299735   -1.0045575     1.700251   0.84702195 
       2.225   -3.5403754    2.5492091  -0.99116631    1.7131782    0.8304797 
        2.23   -3.5329865    2.5538806  -0.97910584    1.7163176   0.84470885 
       2.235   -3.5138332    2.5442862  -0.96954699    1.7098698   0.88738904 
        2.24   -3.4834734    2.5236042   -0.9598692    1.6959706   0.95403903 
       2.245   -3.4502891    2.4978622  -0.95242692    1.6786708    1.0282987 
        2.25   -3.4198909    2.4747381  -0.94515279    1.6631304    1.0951537 
       2.255   -3.3995725    2.4608926  -0.93867986    1.6538257    1.1388996 
        2.26   -3.3928778    2.4589865  -0.93389135    1.6525447     1.152469 
       2.265   -3.3970251    2.4666485  -0.93037664    1.6576939    1.1413478 
        2.27   -3.4060646    2.4784934  -0.92757125    1.6656542    1.1178957 
       2.275    -3.415026    2.4895973  -0.92542873    1.6731165    1.0930336 
        2.28    -3.422869    2.4976454  -0.92522363    1.6785251    1.0705439 
       2.285   -3.4281352    2.5025543  -0.92558088    1.6818241    1.0523027 
        2.29   -3.4335586    2.5047085  -0.92885016    1.6832718     1.034902 
       2.295   -3.4371625    2.5038882  -0.93327435    1.6827206    1.0207323 
         2.3   -3.4390531    2.4994815  -0.93957158    1.6797591    1.0101576 
       2.305   -3.4394875    2.4910315  -0.94845603    1.6740803    1.0031111 
        2.31   -3.4381416    2.4784696  -0.95967195    1.6656382   0.99973942 
       2.315   -3.4365189    2.4618892  -0.97462971    1.6544954   0.99802527 
        2.32   -3.4340021    2.4410452  -0.99295688    1.6404874   0.99876062 
       2.325   -3.4278789    2.4150085   -1.0128704    1.6229896    1.0058901 
        2.33    -3.418371    2.3823125   -1.0360585    1.6010165    1.0207549 
       2.335    -3.403519    2.3416363   -1.0618827    1.5736803     1.047114 
        2.34   -3.3831314    2.2928204    -1.090311    1.5408739    1.0856537 
       2.345   -3.3565282    2.2376831   -1.1188451    1.5038193     1.135653 
        2.35   -3.3285182    2.1799111   -1.1486071     1.464994    1.1882298 
       2.355   -3.3021912    2.1240829   -1.1781083     1.427475    1.2353796 
        2.36    -3.281734    2.0748218   -1.2069122    1.3943695    1.2677785 
       2.365   -3.2713332      2.03686   -1.2344732    1.3688575    1.2759636 
        2.37    -3.274881    2.0147632   -1.2601178    1.3540075    1.2508935 
       2.375   -3.2945685    2.0106215    -1.283947    1.3512241    1.1880895 
        2.38   -3.3287551    2.0215617   -1.3071935    1.3585764    1.0928035 
       2.385   -3.3690679    2.0407452   -1.3283227    1.3714686   0.98218719 
        2.39   -3.4091238    2.0609767   -1.3481471     1.385065   0.87167131 
       2.395   -3.4424882    2.0771882      -1.3653    1.3959598    0.7745382 
         2.4   -3.4681057    2.0869045   -1.3812012    1.4024896   0.69530637 
       2.405   -3.4847392    2.0897128   -1.3950264    1.4043769   0.63634644 
        2.41   -3.4928446    2.0866395   -1.4062051    1.4023115   0.59639964 
       2.415   -3.4981395    2.0795006   -1.4186389    1.3975138   0.56724719 
        2.42   -3.4999314    2.0702883   -1.4296432    1.3913228   0.54741354 
       2.425   -3.4992714    2.0607675   -1.4385039    1.3849244    0.5336134 
        2.43   -3.4997632    2.0522889   -1.4474743    1.3792264   0.52008768 
       2.435   -3.5003518    2.0458669   -1.4544849    1.3749105   0.50662731 
        2.44   -3.5032175    2.0423178   -1.4608997    1.3725254   0.48969395 
       2.445   -3.5073481    2.0422531    -1.465095    1.3724819   0.46965678 
        2.45   -3.5132656    2.0458751   -1.4673905    1.3749161   0.44572253 
       2.455   -3.5236271    2.0527613   -1.4708659    1.3795439   0.41550916 
        2.46   -3.5344741    2.0617542   -1.4727199    1.3855875   0.38491461 
       2.465   -3.5451795    2.0710256   -1.4741539    1.3918183   0.35688529 
        2.47   -3.5535869    2.0783925   -1.4751944    1.3967691   0.33644812 
       2.475   -3.5564168    2.0819075   -1.4745093    1.3991314   0.32960151 
        2.48   -3.5540102    2.0806391    -1.473371     1.398279   0.33715623 
       2.485   -3.5463774    2.0754146   -1.4709627    1.3947679   0.35836688 
        2.49   -3.5358676    2.0689341   -1.4669335    1.3904127   0.38785614 
       2.495    -3.527905     2.064682    -1.463223    1.3875551   0.41591078 
         2.5   -3.5238877     2.065022   -1.4588657    1.3877836   0.43850349 
       2.505   -3.5234567    2.0697751   -1.4536816    1.3909779   0.45628181 
        2.51   -3.5248739    2.0765507   -1.4483233    1.3955314   0.47378203 
       2.515   -3.5245565    2.0825078   -1.4420487    1.3995348   0.49814108 
        2.52   -3.5203146    2.0858713   -1.4344433    1.4017953   0.53381409 
       2.525   -3.5116892    2.0862884   -1.4254008    1.4020755   0.58170855 
        2.53   -3.4991162    2.0844499   -1.4146663      1.40084   0.64049506 
       2.535   -3.4860192    2.0817194   -1.4042997     1.399005   0.70458027 
        2.54   -3.4721213    2.0800514     -1.39207     1.397884   0.77170305 
       2.545   -3.4604794    2.0816968   -1.3787825    1.3989898   0.83538615 
        2.55   -3.4542995    2.0882171   -1.3660823    1.4033717   0.88958686 
       2.555   -3.4520718    2.0993479   -1.3527239    1.4108521   0.93544771 
        2.56   -3.4506075    2.1129161   -1.3376914    1.4199705   0.97810395 
       2.565   -3.4480159    2.1263287   -1.3216872    1.4289844    1.0218733 
        2.57   -3.4427223    2.1386699   -1.3040525    1.4372781     1.069203 
       2.575   -3.4382925    2.1517737   -1.2865188    1.4460845    1.1140721 
        2.58   -3.4371243    2.1691883    -1.267936    1.4577879    1.1501138 
       2.585   -3.4433602    2.1936183   -1.2497419    1.4742059    1.1699756 
        2.59   -3.4562338     2.224822   -1.2314118    1.4951761    1.1751501 
       2.595   -3.4725179    2.2596567   -1.2128612    1.5185865    1.1730515 
         2.6   -3.4879374    2.2938424    -1.194095    1.5415608    1.1734883 
       2.605   -3.5000351    2.3233809   -1.1766542    1.5614119    1.1838669 
        2.61   -3.5041025    2.3448627   -1.1592397    1.5758486    1.2134229 
       2.615    -3.496966    2.3554508   -1.1415152    1.5829642    1.2688084 
        2.62   -3.4782051    2.3532083   -1.1249967    1.5814572    1.3522693 
       2.625   -3.4480039    2.3378309   -1.1101729    1.5711229    1.4632572 
        2.63   -3.4069978    2.3117316   -1.0952662    1.5535831    1.5974955 
       2.635   -3.3624635    2.2809289   -1.0815347    1.5328823    1.7391447 
        2.64    -3.321639     2.254114    -1.067525    1.5148616     1.869477 
       2.645   -3.2945166    2.2392619   -1.0552547    1.5048803    1.9674409 
        2.65   -3.2828845    2.2398813   -1.0430032    1.5052966    2.0264386 
       2.655    -3.285956    2.2543517   -1.0316042    1.5150213    2.0486141 
        2.66   -3.2996668    2.2784704   -1.0211964    1.5312301     2.042972 
       2.665   -3.3194597    2.3078193   -1.0116404    1.5509538    2.0196114 
        2.67    -3.341544     2.338168    -1.003376    1.5713495    1.9878032 
       2.675   -3.3603988    2.3650617  -0.99533704    1.5894232    1.9591029 
        2.68   -3.3729835    2.3845408  -0.98844264     1.602514    1.9416316 
       2.685   -3.3771772    2.3949936   -0.9821836    1.6095387    1.9398542 
        2.69   -3.3764283    2.3979972  -0.97843119    1.6115572    1.9482074 
       2.695   -3.3721993    2.3966022   -0.9755971    1.6106198    1.9615688 
         2.7   -3.3663331    2.3923347  -0.97399833    1.6077518    1.9757986 
       2.705   -3.3587508    2.3841529  -0.97459788    1.6022533     1.991558 
        2.71   -3.3463118    2.3705111   -0.9758007    1.5930854    2.0134174 
       2.715    -3.329588    2.3522508  -0.97733717    1.5808137    2.0390642 
        2.72   -3.3134807    2.3334698  -0.98001088    1.5681921    2.0577946 
       2.725   -3.3027746    2.3197804  -0.98299418    1.5589922    2.0575964 
        2.73   -3.3023424    2.3153875  -0.98695486      1.55604    2.0281387 
       2.735   -3.3150656    2.3210438  -0.99402181    1.5598413    1.9655009 
        2.74   -3.3339528    2.3338554   -1.0000974    1.5684512    1.8813106 
       2.745    -3.354918    2.3488621   -1.0060559    1.5785363    1.7863369 
        2.75   -3.3733139    2.3614179    -1.011896    1.5869744    1.6919161 
       2.755    -3.387597      2.36909    -1.018507    1.5921303    1.6036491 
        2.76   -3.4001875    2.3722675     -1.02792    1.5942658    1.5196713 
       2.765   -3.4088261    2.3728323   -1.0359938    1.5946454    1.4417428 
        2.77    -3.416848    2.3714094   -1.0454386    1.5936891    1.3664001 
       2.775   -3.4210342    2.3658831   -1.0551512    1.5899752    1.3003163 
        2.78   -3.4176928    2.3531223   -1.0645705    1.5813994    1.2514928 
       2.785   -3.4066269    2.3320476   -1.0745793    1.5672363    1.2214913 
        2.79   -3.3882209    2.3047443   -1.0834766    1.5488873    1.2076261 
       2.795   -3.3687737    2.2750398   -1.0937338    1.5289246    1.1985509 
         2.8    -3.349019     2.246666    -1.102353    1.5098562    1.1892295 
       2.805   -3.3339653    2.2227797   -1.1111856    1.4938035    1.1704277 
        2.81   -3.3267594    2.2063634    -1.120396    1.4827711    1.1352121 
       2.815    -3.329553     2.199679   -1.1298739    1.4782789    1.0786452 
        2.82   -3.3397869    2.2027081   -1.1370788    1.4803146    1.0036804 
       2.825   -3.3587398    2.2129958    -1.145744    1.4872284   0.91178393 
        2.83   -3.3807123    2.2276978   -1.1530145    1.4971087   0.81275188 
       2.835   -3.4034384    2.2452084     -1.15823    1.5088766   0.71135092 
        2.84   -3.4278388    2.2644023   -1.1634365    1.5217758    0.6083609 
       2.845   -3.4514341    2.2830922   -1.1683419    1.5343361   0.50944363 
        2.85   -3.4714339     2.298129   -1.1733049    1.5444415   0.42151954 
       2.855    -3.484771    2.3069377   -1.1778333    1.5503613   0.35107681 
        2.86   -3.4914051    2.3086358   -1.1827694    1.5515025   0.29938118 
       2.865   -3.4916626     2.303975   -1.1876877    1.5483703   0.26546184 
        2.87   -3.4864709    2.2947809   -1.1916901    1.5421914   0.24650851 
       2.875   -3.4787384    2.2832922   -1.1954462    1.5344706    0.2370365 
        2.88   -3.4708483    2.2715271   -1.1993213    1.5265639   0.23226249 
       2.885   -3.4636396    2.2607305   -1.2029091    1.5193081   0.22984806 
        2.89   -3.4575584    2.2510174    -1.206541    1.5127805   0.22898912 
       2.895   -3.4523518    2.2415515   -1.2108002     1.506419   0.23058966 
         2.9   -3.4453619    2.2311668   -1.2141951      1.49944   0.23846176 
       2.905   -3.4361038    2.2190337   -1.2170702    1.4912861   0.25365391 
        2.91   -3.4256028    2.2050054   -1.2205975    1.4818584   0.27488092 
       2.915    -3.413282    2.1895572   -1.2237248    1.4714766   0.30197012 
        2.92   -3.3983531    2.1736458   -1.2247074    1.4607834   0.33448585 
       2.925   -3.3849017    2.1586158   -1.2262858    1.4506827   0.36627651 
        2.93   -3.3730466    2.1460258   -1.2270208    1.4422216   0.39533412 
       2.935    -3.364331    2.1371104   -1.2272206    1.4362301   0.41850148 
        2.94   -3.3596065    2.1320661   -1.2275404    1.4328401   0.43447576 
       2.945   -3.3565819    2.1297767   -1.2268052    1.4313016   0.44675766 
        2.95   -3.3539773    2.1282229   -1.2257544    1.4302573    0.4587289 
       2.955   -3.3495811     2.125229   -1.2243521    1.4282453   0.47493259 
        2.96    -3.342141    2.1191732   -1.2229678    1.4241756   0.49828119 
       2.965   -3.3301983    2.1093799   -1.2208184     1.417594   0.53092141 
        2.97   -3.3142033    2.0961741   -1.2180292    1.4087192   0.57184364 
       2.975   -3.2960738    2.0807397   -1.2153341    1.3983466   0.61749819 
        2.98   -3.2758926    2.0648793   -1.2110133    1.3876877   0.66564773 
       2.985   -3.2567799    2.0507093   -1.2060706    1.3781649   0.71038935 
        2.99   -3.2403578    2.0404304   -1.1999275     1.371257   0.74737636 
       2.995     -3.22995    2.0362152   -1.1937348    1.3684242    0.7705682 
           3   -3.2268599    2.0400489    -1.186811    1.3710006   0.77643397 
       3.005   -3.2334746    2.0535005   -1.1799741    1.3800407    0.7608727 
        3.01   -3.2490969    2.0772233   -1.1718736    1.3959834   0.72430256 
       3.015   -3.2741365    2.1102311   -1.1639054    1.4181661   0.66778872 
        3.02   -3.3038644    2.1495374    -1.154327    1.4445816    0.6001689 
       3.025   -3.3354964    2.1905806   -1.1449157    1.4721644   0.52983211 
        3.03   -3.3628038    2.2283298    -1.134474    1.4975335   0.46934302 
       3.035   -3.3833563    2.2585359   -1.1248204    1.5178332   0.42623507 
        3.04   -3.3931555    2.2786059   -1.1145496    1.5313212   0.40791296 
       3.045    -3.392704    2.2880341   -1.1046699    1.5376573   0.41454852 
        3.05   -3.3835489    2.2885452   -1.0950037    1.5380008   0.44272169 
       3.055   -3.3694819    2.2837442   -1.0857377    1.5347743   0.48447488 
        3.06    -3.354795    2.2779724   -1.0768226    1.5308954   0.53035749 
       3.065   -3.3435979     2.274644   -1.0689539    1.5286586   0.57193951 
        3.07   -3.3358746    2.2749629   -1.0609118    1.5288729   0.60748846 
       3.075   -3.3318738    2.2779829   -1.0538909    1.5309025   0.63718543 
        3.08   -3.3276236    2.2817674   -1.0458562    1.5334458   0.66694428 
       3.085   -3.3243499    2.2845687   -1.0397812    1.5353285   0.69695221 
        3.09   -3.3178932    2.2853516   -1.0325417    1.5358545   0.73271502 
       3.095   -3.3093647    2.2837754   -1.0255893    1.5347953   0.77336969 
         3.1   -3.2986141    2.2799586   -1.0186555    1.5322302   0.81905117 
       3.105    -3.286879    2.2742409   -1.0126381    1.5283877     0.868128 
        3.11   -3.2734954    2.2671911   -1.0063042      1.52365    0.9208036 
       3.115   -3.2590617    2.2598746  -0.99918707    1.5187329   0.97538425 
        3.12   -3.2461622    2.2541295  -0.99203278    1.5148719    1.0271686 
       3.125    -3.237929    2.2523889   -0.9855401    1.5137022    1.0702089 
        3.13   -3.2355958    2.2567147  -0.97888107    1.5166093    1.1010574 
       3.135   -3.2404612    2.2674186  -0.97304252    1.5238028    1.1179794 
        3.14   -3.2492161    2.2824986  -0.96671752    1.5339372    1.1267185 
       3.145    -3.258521    2.2983742  -0.96014683    1.5446063    1.1347153 
        3.15   -3.2654733    2.3112246  -0.95424875    1.5532423    1.1491461 
       3.155    -3.266522    2.3181385  -0.94838352    1.5578887    1.1768827 
        3.16   -3.2607018    2.3177192  -0.94298259     1.557607    1.2202006 
       3.165   -3.2475374    2.3102881   -0.9372493     1.552613    1.2788408 
        3.17   -3.2303978    2.2979319   -0.9324659     1.544309    1.3462685 
       3.175   -3.2120343    2.2844904  -0.92754393    1.5352758    1.4147205 
        3.18   -3.1976429     2.275109  -0.92253396    1.5289711    1.4723131 
       3.185   -3.1929673     2.274567  -0.91840026    1.5286069    1.5069375 
        3.19   -3.1987771    2.2847343   -0.9140428    1.5354397    1.5152343 
       3.195    -3.213749    2.3037719  -0.90997711    1.5482338    1.5003338 
         3.2   -3.2345488    2.3284372  -0.90611159    1.5648099    1.4693636 
       3.205   -3.2601425    2.3562853  -0.90385721    1.5835251    1.4262608 
        3.21   -3.2870341    2.3851118  -0.90192239    1.6028977    1.3776347 
       3.215   -3.3123446    2.4116391  -0.90070552    1.6207252    1.3306626 
        3.22   -3.3322483    2.4319469  -0.90030146    1.6343729    1.2941668 
       3.225   -3.3440906    2.4431159  -0.90097466     1.641879    1.2744172 
        3.23   -3.3458953    2.4441813  -0.90171407    1.6425949    1.2746984 
       3.235   -3.3411124    2.4360919  -0.90502054    1.6371585    1.2900517 
        3.24   -3.3311704    2.4213395  -0.90983085    1.6272443    1.3159912 
       3.245   -3.3199454    2.4034464  -0.91649901    1.6152193    1.3440988 
        3.25   -3.3103573    2.3861034  -0.92425389    1.6035641    1.3667803 
       3.255     -3.30553    2.3720611  -0.93346889    1.5941271     1.377152 
        3.26   -3.3075046    2.3623609  -0.94514376    1.5876081     1.371421 
       3.265   -3.3140281    2.3562789  -0.95774923    1.5835208    1.3525873 
        3.27   -3.3263794    2.3520877  -0.97429166    1.5807041    1.3208812 
       3.275   -3.3405634    2.3481232  -0.99244023    1.5780398     1.282526 
        3.28   -3.3550458    2.3435023   -1.0115436    1.5749343    1.2403824 
       3.285   -3.3708708    2.3382505   -1.0326203    1.5714049    1.1936579 
        3.29   -3.3889581    2.3329625   -1.0559956    1.5678511    1.1412172 
       3.295   -3.4092182     2.328007   -1.0812111    1.5645209    1.0834187 
         3.3   -3.4306874    2.3225281   -1.1081594    1.5608387    1.0229903 
       3.305   -3.4501129    2.3143129   -1.1358001    1.5553178   0.96676492 
        3.31   -3.4659537    2.3009084   -1.1650453    1.5463094   0.92001181 
       3.315   -3.4743142    2.2810073   -1.1933069     1.532935   0.88946352 
        3.32   -3.4777343    2.2549352    -1.222799    1.5154135    0.8728483 
       3.325   -3.4750545    2.2240391   -1.2510154      1.49465   0.87079995 
        3.33   -3.4670265    2.1896438   -1.2773827    1.4715348   0.88158473 
       3.335   -3.4557446    2.1525792   -1.3031654    1.4466258   0.90213482 
        3.34   -3.4394444    2.1140022   -1.3254422    1.4207004   0.93309026 
       3.345   -3.4240876    2.0771862   -1.3469014    1.3959584   0.96416548 
        3.35   -3.4137134    2.0487081   -1.3650053      1.37682   0.98376326 
       3.355   -3.4177264    2.0357688   -1.3819576    1.3681242    0.9734166 
        3.36   -3.4375785    2.0392045    -1.398374    1.3704332   0.93015225 
       3.365    -3.461738    2.0505772   -1.4111608    1.3780761   0.87553607 
        3.37   -3.4815149    2.0587147   -1.4228002    1.3835448   0.83083873 
       3.375   -3.4903914    2.0573063   -1.4330851    1.3825983   0.80976323 
        3.38   -3.4870408    2.0463275   -1.4407133    1.3752201   0.81375222 
       3.385   -3.4770354    2.0295699   -1.4474655    1.3639583   0.83258566 
        3.39   -3.4662592    2.0118543    -1.454405    1.3520526     0.854499 
       3.395   -3.4563647    1.9971036   -1.4592611    1.3421395   0.87326885 
         3.4   -3.4512346    1.9874773   -1.4637573    1.3356702   0.88199268 
       3.405    -3.450064     1.983507   -1.4665571     1.333002    0.8807752 
        3.41   -3.4538248    1.9848688    -1.468956    1.3339172   0.86878168 
       3.415   -3.4593328    1.9910772   -1.4682556    1.3380895   0.85016129 
        3.42   -3.4702966    2.0017496    -1.468547    1.3452618   0.82136004 
       3.425   -3.4824876    2.0164758   -1.4660117    1.3551585   0.78782963 
        3.43   -3.4974385    2.0344945    -1.462944    1.3672678    0.7489572 
       3.435   -3.5127373    2.0545126   -1.4582247    1.3807208   0.70910293 
        3.44   -3.5289173    2.0749319   -1.4539854    1.3944435   0.66968442 
       3.445   -3.5422966    2.0944008   -1.4478957    1.4075275   0.63663057 
        3.45   -3.5542386    2.1122404   -1.4419982    1.4195164   0.60943601 
       3.455   -3.5636141    2.1285199   -1.4350942    1.4304569   0.58952667 
        3.46   -3.5718854    2.1436999   -1.4281855    1.4406586   0.57496652 
       3.465   -3.5785561    2.1581175   -1.4204385    1.4503478   0.56606057 
        3.47   -3.5844479    2.1717767   -1.4126712    1.4595273   0.56192557 
       3.475   -3.5880558    2.1844271   -1.4036287     1.468029   0.56448065 
        3.48    -3.590457    2.1958213   -1.3946358    1.4756863   0.57266158 
       3.485   -3.5913093    2.2059859   -1.3853233    1.4825174   0.58665142 
        3.49   -3.5915217    2.2153773   -1.3761444    1.4888288   0.60475909 
       3.495   -3.5908703    2.2247606   -1.3661097    1.4951348   0.62624232 
         3.5   -3.5917202    2.2347129   -1.3570073    1.5018232   0.64761638 
       3.505   -3.5925365    2.2449328   -1.3476037    1.5086914   0.67066808 
        3.51   -3.5915088    2.2538692   -1.3376396     1.514697   0.69876654 
       3.515   -3.5866188    2.2591462   -1.3274726    1.5182434   0.73630237 
        3.52   -3.5766057    2.2587924   -1.3178133    1.5180056   0.78631937 
       3.525   -3.5600162    2.2525876   -1.3074286    1.5138357   0.85021405 
        3.53   -3.5406463    2.2427694   -1.2978769    1.5072375   0.92083856 
       3.535   -3.5216321     2.233738   -1.2878942     1.501168   0.98958119 
        3.54   -3.5082107    2.2304613   -1.2777493     1.498966    1.0449465 
       3.545   -3.5029676    2.2360851   -1.2668825    1.5027453    1.0804681 
        3.55   -3.5051579    2.2502462   -1.2549116    1.5122623    1.0973426 
       3.555   -3.5147887    2.2692556   -1.2455331    1.5250374    1.0995662 
        3.56   -3.5228934    2.2878776   -1.2350158    1.5375521     1.102994 
       3.565   -3.5254351     2.301402   -1.2240331    1.5466411    1.1173377 
        3.57    -3.520513    2.3071501   -1.2133629    1.5505041    1.1477221 
       3.575    -3.506698    2.3055129   -1.2011851    1.5494038    1.1954975 
        3.58   -3.4907471    2.3003364   -1.1904107     1.545925    1.2490039 
       3.585   -3.4769485    2.2976193   -1.1793292     1.544099    1.2970486 
        3.59   -3.4702974    2.3020126   -1.1682848    1.5470515    1.3290272 
       3.595   -3.4720408    2.3137878    -1.158253    1.5549649    1.3433223 
         3.6   -3.4793409    2.3295323   -1.1498086    1.5655459    1.3469728 
       3.605   -3.4864742     2.345261   -1.1412132    1.5761163    1.3509215 
        3.61   -3.4903184    2.3583988   -1.1319197    1.5849454    1.3617143 
       3.615   -3.4907403    2.3676401   -1.1231003     1.591156    1.3811803 
        3.62   -3.4874091     2.372023   -1.1153861    1.5941015    1.4108864 
       3.625   -3.4778061    2.3703041    -1.107502    1.5929463    1.4549554 
        3.63   -3.4605676    2.3610402   -1.0995274    1.5867205    1.5161548 
       3.635   -3.4336989    2.3434286   -1.0902703    1.5748848    1.5970364 
        3.64   -3.4017147    2.3185768   -1.0831379    1.5581833    1.6903765 
       3.645   -3.3663135    2.2906702   -1.0756433    1.5394289    1.7887954 
        3.65   -3.3355403    2.2669469   -1.0685934    1.5234858    1.8744635 
       3.655   -3.3164583     2.255048   -1.0614103    1.5154892    1.9302704 
        3.66   -3.3133017    2.2585056    -1.054796    1.5178129    1.9469055 
       3.665   -3.3223031     2.274655   -1.0476481     1.528666    1.9311905 
        3.67   -3.3378177     2.297447   -1.0403707    1.5439832    1.8960079 
       3.675   -3.3537332    2.3216188   -1.0321144    1.5602277    1.8541887 
        3.68   -3.3689751    2.3444501    -1.024525    1.5755713     1.810266 
       3.685   -3.3816994    2.3654101   -1.0162894    1.5896573    1.7674666 
        3.69   -3.3931954    2.3851523   -1.0080431    1.6029249     1.724232 
       3.695   -3.4036586    2.4045578  -0.99910072    1.6159663    1.6799854 
         3.7   -3.4149681    2.4239764  -0.99099165    1.6290164    1.6327024 
       3.705   -3.4249964    2.4429268  -0.98206963    1.6417519    1.5857524 
        3.71   -3.4338038    2.4604948  -0.97330901    1.6535584    1.5404534 
       3.715   -3.4410587    2.4761265  -0.96493217    1.6640635    1.4981774 
        3.72   -3.4476759    2.4900443  -0.95763153    1.6734169    1.4580275 
       3.725   -3.4544799    2.5027127  -0.95176718    1.6819306    1.4189057 
        3.73   -3.4593691    2.5137967  -0.94557233    1.6893795    1.3837619 
       3.735   -3.4627566    2.5217515  -0.94100511    1.6947254    1.3537826 
        3.74   -3.4605306    2.5244498  -0.93608082    1.6965388    1.3357134 
       3.745   -3.4523597    2.5201519  -0.93220774    1.6936505    1.3313606 
        3.75   -3.4386628    2.5081216  -0.93054121    1.6855656    1.3403905 
       3.755   -3.4190522    2.4887702  -0.93028202    1.6725606    1.3620707 
        3.76    -3.395685    2.4633087  -0.93237631    1.6554494     1.391943 
       3.765   -3.3690372    2.4331703  -0.93586693    1.6351951    1.4272403 
        3.77   -3.3395497    2.3998334  -0.93971637    1.6127912    1.4652806 
       3.775    -3.308767    2.3652692  -0.94349783    1.5895626    1.5018144 
        3.78   -3.2811601    2.3324028  -0.94875733     1.567475    1.5285246 
       3.785   -3.2604928    2.3048362  -0.95565656    1.5489491    1.5374184 
        3.79   -3.2481136    2.2857947  -0.96231885    1.5361524    1.5238771 
       3.795   -3.2470648    2.2770052  -0.97005958    1.5302454    1.4831941 
         3.8   -3.2575997    2.2783277  -0.97927202    1.5311342    1.4159584 
       3.805   -3.2760296    2.2880976    -0.987932       1.5377    1.3288871 
        3.81   -3.3012661     2.303679  -0.99758714    1.5481714    1.2268436 
       3.815   -3.3293046    2.3219604   -1.0073442    1.5604573    1.1184113 
        3.82   -3.3572114    2.3397793   -1.0174321    1.5724323    1.0108939 
       3.825   -3.3831302    2.3542761    -1.028854    1.5821748   0.90996539 
        3.83   -3.4043336    2.3629954   -1.0413382    1.5880345   0.82171804 
       3.835   -3.4175838     2.363819   -1.0537648     1.588588   0.75229739 
        3.84   -3.4218975    2.3549589   -1.0669385    1.5826337   0.70482595 
       3.845   -3.4173118    2.3352261   -1.0820857    1.5693724   0.68055221 
        3.85   -3.4020637    2.3044654   -1.0975982    1.5486999   0.68148775 
       3.855   -3.3773125    2.2640683   -1.1132441    1.5215513   0.70462389 
        3.86    -3.346581     2.217437    -1.129144    1.4902131   0.74220167 
       3.865   -3.3140103    2.1698559   -1.1441545    1.4582365   0.78379378 
        3.87   -3.2871703    2.1274592   -1.1597111    1.4297441   0.81433906 
       3.875   -3.2711335    2.0952827   -1.1758508    1.4081201   0.82275421 
        3.88   -3.2656051    2.0753706   -1.1902345    1.3947383     0.807076 
       3.885   -3.2711837    2.0664215   -1.2047622    1.3887241    0.7679856 
        3.89   -3.2826681    2.0651257   -1.2175424    1.3878533   0.71471534 
       3.895   -3.2986939    2.0679613   -1.2307326     1.389759   0.65262144 
         3.9   -3.3146758    2.0723313   -1.2423444    1.3926958   0.58977547 
       3.905   -3.3312973    2.0767625   -1.2545348    1.3956738   0.52741949 
        3.91    -3.346261    2.0806357   -1.2656253    1.3982767   0.46913731 
       3.915   -3.3594642    2.0839389   -1.2755254    1.4004965   0.41549366 
        3.92   -3.3713089    2.0870171   -1.2842917    1.4025653   0.36610248 
       3.925   -3.3820218    2.0903125   -1.2917093    1.4047799   0.32063494 
        3.93   -3.3925345    2.0940561   -1.2984784    1.4072958   0.27822545 
       3.935   -3.4033727    2.0979409   -1.3054318    1.4099065   0.23898191 
        3.94   -3.4120045    2.1009954   -1.3110091    1.4119592   0.20692212 
       3.945   -3.4184434    2.1017798   -1.3166636    1.4124865   0.18367728 
        3.95   -3.4201501    2.0988463   -1.3213038     1.410515   0.17358201 
       3.955   -3.4160018    2.0912298    -1.324772    1.4053964   0.17885318 
        3.96   -3.4078638    2.0788989    -1.328965    1.3971095   0.19741228 
       3.965   -3.3945709      2.06309   -1.3314809    1.3864852   0.22909287 
        3.97   -3.3790661    2.0462724   -1.3327937    1.3751831   0.26798835 
       3.975   -3.3657274    2.0315178   -1.3342096    1.3652673   0.30601689 
        3.98   -3.3549042    2.0212531    -1.333651     1.358369   0.34009568 
       3.985   -3.3499543    2.0159974   -1.3339569     1.354837   0.36584316 
        3.99   -3.3466764    2.0140274   -1.3326491     1.353513   0.38932975 
       3.995    -3.342024    2.0123261   -1.3296979    1.3523697   0.41667157 
           4   -3.3334998    2.0081374   -1.3253624    1.3495547   0.45310114 
       4.005   -3.3198101    2.0000992   -1.3197108    1.3441527   0.50112124 
        4.01    -3.301849    1.9885175   -1.3133315    1.3363693   0.55910148 
       4.015   -3.2809365    1.9751674   -1.3057691    1.3273974   0.62339162 
        4.02   -3.2599669    1.9630451   -1.2969219    1.3192507   0.68744535 
       4.025   -3.2428786    1.9560529   -1.2868256    1.3145517   0.74275886 
        4.03   -3.2325371     1.958383   -1.2741541    1.3161176   0.78183942 
       4.035   -3.2325094    1.9731817   -1.2593277     1.326063   0.79768447 
        4.04   -3.2442061    2.0008165   -1.2433896    1.3446347   0.78861059 
       4.045   -3.2636286    2.0381777   -1.2254508    1.3697431   0.76247199 
        4.05   -3.2856028    2.0799149   -1.2056878    1.3977923   0.73068411 
       4.055   -3.3050155    2.1208453   -1.1841702    1.4252993   0.70439103 
        4.06   -3.3190342     2.157727   -1.1613071    1.4500854   0.69022653 
       4.065    -3.327328    2.1895497   -1.1377782    1.4714716   0.68970257 
        4.07    -3.330116     2.216759   -1.1133569    1.4897574   0.70207344 
       4.075   -3.3290224    2.2401722   -1.0888503     1.505492   0.72448171 
        4.08   -3.3241306    2.2602991   -1.0638316    1.5190182   0.75591309 
       4.085   -3.3171291    2.2772199   -1.0399092    1.5303897   0.79388088 
        4.09    -3.307565    2.2908781    -1.016687    1.5395686   0.83820201 
       4.095   -3.2971228    2.3014114  -0.99571139    1.5466474   0.88614062 
         4.1   -3.2825045    2.3090963  -0.97340823     1.551812   0.94024169 
       4.105   -3.2661958    2.3140732  -0.95212257    1.5551567   0.99684572 
        4.11   -3.2492877    2.3163288  -0.93295889    1.5566726    1.0539843 
       4.115   -3.2319412    2.3160365  -0.91590473    1.5564761    1.1105767 
        4.12    -3.214193    2.3140391   -0.9001539    1.5551338    1.1650805 
       4.125   -3.1965869    2.3120681  -0.88451878    1.5538092    1.2146231 
        4.13   -3.1830612    2.3123702  -0.87069097    1.5540122    1.2522803 
       4.135   -3.1761616    2.3168271  -0.85933444    1.5570075    1.2732104 
        4.14   -3.1740462    2.3260981  -0.84794813    1.5632379    1.2787646 
       4.145   -3.1766422    2.3394187  -0.83722355      1.57219    1.2699504 
        4.15   -3.1834819     2.355199  -0.82828293     1.582795    1.2492395 
       4.155   -3.1924388    2.3718536  -0.82058521    1.5939876    1.2210605 
        4.16   -3.2030782     2.388267  -0.81481122    1.6050182    1.1875814 
       4.165   -3.2136781     2.403729  -0.80994907    1.6154093    1.1520346 
        4.17   -3.2236267     2.417585  -0.80604164    1.6247211    1.1163678 
       4.175   -3.2320692     2.429138   -0.8029312    1.6324852    1.0827886 
        4.18   -3.2401559    2.4378607  -0.80229521    1.6383472    1.0510977 
       4.185   -3.2465533    2.4436109  -0.80294242    1.6422116     1.023371 
        4.19   -3.2494994    2.4466113  -0.80288816     1.644228    1.0016519 
       4.195   -3.2521344    2.4472651  -0.80486936    1.6446674   0.98229664 
         4.2   -3.2544048    2.4459778  -0.80842704    1.6438023   0.96513816 
       4.205   -3.2555428    2.4432536  -0.81228916    1.6419715   0.95067388 
        4.21   -3.2576991    2.4401275   -0.8175716    1.6398706   0.93561486 
       4.215   -3.2618082     2.438311  -0.82349719    1.6386499   0.91728712 
        4.22   -3.2700961    2.4394415  -0.83065467    1.6394096    0.8916874 
       4.225   -3.2823898    2.4438142  -0.83857564    1.6423482   0.85889341 
        4.23   -3.2967791    2.4498377   -0.8469414    1.6463963   0.82284956 
       4.235   -3.3125131    2.4548983  -0.85761476    1.6497973    0.7872561 
        4.24   -3.3257566    2.4567736  -0.86898299    1.6510575   0.75886131 
       4.245    -3.334054    2.4543398  -0.87971415    1.6494219   0.74172699 
        4.25   -3.3388611    2.4475352   -0.8913259    1.6448489   0.73443696 
       4.255   -3.3410119    2.4369927  -0.90401922    1.6377639   0.73547309 
        4.26   -3.3410868    2.4236687  -0.91741807    1.6288096   0.74312738 
       4.265   -3.3396354    2.4086247  -0.93101074    1.6186994   0.75546355 
        4.27   -3.3373047    2.3928877   -0.9444169    1.6081235   0.77038552 
       4.275   -3.3352505    2.3771947  -0.95805582    1.5975771   0.78547395 
        4.28   -3.3336953    2.3617752  -0.97192003    1.5872145   0.79986183 
       4.285    -3.332847    2.3464521  -0.98639482    1.5769168   0.81322832 
        4.29   -3.3311391    2.3309722   -1.0001668    1.5665136   0.82741402 
       4.295   -3.3296535    2.3153615    -1.014292    1.5560225   0.84116941 
         4.3   -3.3275924    2.2999341   -1.0276583    1.5456547   0.85516959 
       4.305   -3.3255833    2.2849776   -1.0406057    1.5356032    0.8686295 
        4.31    -3.322908    2.2705196   -1.0523883    1.5258868   0.88257733 
       4.315   -3.3206762    2.2564674   -1.0642088    1.5164431   0.89610564 
        4.32   -3.3173636    2.2430752   -1.0742884     1.507443   0.91087365 
       4.325   -3.3167089     2.231208   -1.0855008    1.4994677   0.92209326 
        4.33   -3.3166342    2.2220517   -1.0945825    1.4933143   0.93114045 
       4.335   -3.3196824    2.2165154   -1.1031671    1.4895937   0.93454278 
        4.34   -3.3261773     2.214602   -1.1115753    1.4883078   0.93227666 
       4.345   -3.3349288    2.2149471   -1.1199817    1.4885397   0.92742571 
        4.35   -3.3426273    2.2148932   -1.1277341    1.4885035   0.92678701 
       4.355   -3.3454882    2.2110933   -1.1343949    1.4859498   0.93830336 
        4.36   -3.3407636    2.2004814   -1.1402822    1.4788181    0.9683082 
       4.365   -3.3271889    2.1812636   -1.1459253    1.4659029    1.0199626 
        4.37   -3.3043699    2.1536975   -1.1506724    1.4473773    1.0930562 
       4.375   -3.2744377    2.1205078   -1.1539299    1.4250724    1.1817635 
        4.38   -3.2423705     2.086417   -1.1559534     1.402162    1.2747988 
       4.385   -3.2141026    2.0566135   -1.1574891    1.3821327    1.3591649 
        4.39   -3.1927696    2.0349787   -1.1577909    1.3675932      1.42637 
       4.395   -3.1799278    2.0233489   -1.1565789    1.3597775    1.4720283 
         4.4    -3.178126    2.0219307   -1.1561953    1.3588244    1.4925158 
       4.405   -3.1850253    2.0300141   -1.1550112    1.3642568    1.4908806 
        4.41   -3.1987868    2.0463409   -1.1524459    1.3752291    1.4705034 
       4.415   -3.2195575    2.0693094   -1.1502482    1.3906649    1.4331263 
        4.42   -3.2444262    2.0973465   -1.1470797    1.4095071    1.3840178 
       4.425   -3.2725375    2.1290693   -1.1434682    1.4308261    1.3259879 
        4.43   -3.3027528    2.1629053   -1.1398475    1.4535654    1.2624056 
       4.435   -3.3319065    2.1967608   -1.1351457    1.4763177    1.1994444 
        4.44   -3.3581274    2.2285703   -1.1295572    1.4976951    1.1417872 
       4.445   -3.3816098    2.2572395   -1.1243703     1.516962    1.0907445 
        4.45   -3.4029107    2.2828688    -1.120042     1.534186    1.0458498 
       4.455   -3.4233615    2.3058987   -1.1174628    1.5496631    1.0053234 
        4.46   -3.4405258    2.3257109   -1.1148149    1.5629777   0.97263471 
       4.465   -3.4524765     2.340119   -1.1123574    1.5726606   0.95217365 
        4.47   -3.4572259    2.3465627   -1.1106632    1.5769911   0.94864199 
       4.475   -3.4522543    2.3440123    -1.108242    1.5752771   0.96557414 
        4.48   -3.4408956    2.3339476   -1.1069479    1.5685132   0.99714354 
       4.485   -3.4259419    2.3196282   -1.1063137    1.5588899    1.0362315 
        4.49   -3.4107795    2.3044276   -1.1063519    1.5486745    1.0750152 
       4.495   -3.3964247    2.2906209   -1.1058038    1.5393958      1.10969 
         4.5   -3.3852439    2.2792521   -1.1059919    1.5317554     1.136362 
       4.505   -3.3778625    2.2706354   -1.1072271    1.5259647    1.1540092 
        4.51    -3.372951    2.2648007   -1.1081503    1.5220435    1.1642848 
       4.515   -3.3709182    2.2616457   -1.1092725    1.5199232    1.1671225 
        4.52   -3.3718255    2.2608327   -1.1109927    1.5193768    1.1631063 
       4.525    -3.374151    2.2616095   -1.1125415    1.5198988    1.1550116 
        4.53   -3.3769631    2.2628139   -1.1141492    1.5207082    1.1452878 
       4.535   -3.3797564    2.2631446   -1.1166118    1.5209305    1.1358583 
        4.54   -3.3796139    2.2613774   -1.1182365    1.5197429    1.1310777 
       4.545   -3.3774891    2.2564097   -1.1210794    1.5164044    1.1306444 
        4.55   -3.3719919    2.2479357   -1.1240562    1.5107094     1.136074 
       4.555   -3.3647654    2.2386326   -1.1261327    1.5044574     1.142567 
        4.56   -3.3645336    2.2359996    -1.128534    1.5026879    1.1325338 
       4.565   -3.3794215    2.2479756    -1.131446    1.5107363    1.0885318 
        4.57   -3.4079763    2.2731353    -1.134841    1.5276447    1.0142208 
       4.575    -3.437118     2.299511   -1.1376071    1.5453703   0.93803728 
        4.58   -3.4570241    2.3148487   -1.1421754    1.5556779   0.88460482 
       4.585   -3.4601046    2.3136231   -1.1464815    1.5548543    0.8685996 
        4.59   -3.4477807    2.2962852   -1.1514956    1.5432024   0.88812389 
       4.595   -3.4238749    2.2672905   -1.1565843    1.5237168   0.93416725 
         4.6   -3.3963424    2.2346482   -1.1616942    1.5017797   0.98908228 
       4.605   -3.3760006    2.2086028   -1.1673978    1.4842761    1.0294811 
        4.61   -3.3716611    2.1973498   -1.1743114    1.4767136    1.0363911 
       4.615   -3.3840505    2.2022881   -1.1817624    1.4800323    1.0073258 
        4.62   -3.4082583    2.2176476   -1.1906107    1.4903546   0.95392196 
       4.625   -3.4335985    2.2348001   -1.1987984    1.5018818   0.89744281 
        4.63   -3.4549765    2.2468092   -1.2081673    1.5099524   0.85109164 
       4.635   -3.4684566    2.2501056    -1.218351    1.5121677   0.82320081 
        4.64   -3.4749699    2.2439237   -1.2310462    1.5080133   0.81354732 
       4.645   -3.4742823    2.2291405   -1.2451418    1.4980783   0.82138326 
        4.65   -3.4690685    2.2073157   -1.2617528    1.4834111    0.8417676 
       4.655   -3.4584756    2.1801864   -1.2782893     1.465179   0.87342698 
        4.66   -3.4459942    2.1495038   -1.2964904     1.444559   0.91012675 
       4.665   -3.4336458    2.1170351   -1.3166106    1.4227387   0.94737369 
        4.67   -3.4223518    2.0846037   -1.3377482    1.4009433   0.98197899 
       4.675   -3.4129463    2.0540804   -1.3588659    1.3804304    1.0109366 
        4.68   -3.4077009    2.0270737   -1.3806272    1.3622807    1.0299826 
       4.685    -3.408439    2.0044113   -1.4040277    1.3470506    1.0362762 
        4.69   -3.4124261    1.9859396   -1.4264865    1.3346368    1.0333046 
       4.695   -3.4197763    1.9711146   -1.4486617    1.3246738    1.0218988 
         4.7   -3.4294216    1.9599793   -1.4694423    1.3171904    1.0037194 
       4.705    -3.444583    1.9535644   -1.4910185    1.3128793   0.97460136 
        4.71   -3.4642537     1.952997   -1.5112567     1.312498   0.93519547 
       4.715   -3.4878994    1.9577697   -1.5301298    1.3157054   0.88738513 
        4.72   -3.5126615    1.9648918   -1.5477697    1.3204918   0.83834857 
       4.725   -3.5349387    1.9697763   -1.5651624    1.3237744   0.79777034 
        4.73   -3.5476665    1.9679971   -1.5796693    1.3225787   0.77896639 
       4.735   -3.5492364    1.9566327   -1.5926037    1.3149413   0.78725108 
        4.74   -3.5395813     1.934817   -1.6047643    1.3002802   0.82373573 
       4.745   -3.5190693    1.9038226   -1.6152467    1.2794507   0.88641933 
        4.75   -3.4905066    1.8668932   -1.6236134    1.2546325   0.96811207 
       4.755   -3.4586353    1.8284955   -1.6301398    1.2288276    1.0578188 
        4.76   -3.4278626     1.792984   -1.6348786    1.2049623    1.1448607 
       4.765   -3.4001433    1.7633442   -1.6367991    1.1850431    1.2228344 
        4.77   -3.3789002    1.7408317   -1.6380686    1.1699137    1.2856345 
       4.775   -3.3623976    1.7257702   -1.6366274    1.1597918    1.3342415 
        4.78   -3.3517623    1.7186376   -1.6331247    1.1549984    1.3665198 
       4.785   -3.3475627    1.7201692   -1.6273936    1.1560277    1.3809915 
        4.79   -3.3504402    1.7302987   -1.6201415    1.1628351    1.3772194 
       4.795   -3.3591435    1.7471551   -1.6119884    1.1741634    1.3590008 
         4.8   -3.3692064    1.7672516   -1.6019548    1.1876691    1.3355446 
       4.805    -3.376393    1.7865245   -1.5898685    1.2006213    1.3163031 
        4.81   -3.3778622    1.8014729   -1.5763893    1.2106673    1.3082651 
       4.815   -3.3697697    1.8104501   -1.5593197    1.2167003    1.3173454 
        4.82   -3.3566772    1.8151933   -1.5414839     1.219888     1.336147 
       4.825   -3.3440213    1.8217984   -1.5222228    1.2243269    1.3516221 
        4.83   -3.3407058     1.838742   -1.5019638    1.2357137    1.3443011 
       4.835   -3.3521058    1.8712221   -1.4808836    1.2575417    1.3024083 
        4.84   -3.3774723     1.917259   -1.4602133    1.2884805     1.229097 
       4.845    -3.407958    1.9703032   -1.4376548    1.3241285    1.1416035 
        4.85   -3.4393691    2.0240912   -1.4152779    1.3602763    1.0514758 
       4.855   -3.4669519    2.0743254   -1.3926266    1.3940359    0.9689367 
        4.86   -3.4889767    2.1179787    -1.370998    1.4233728   0.89950794 
       4.865   -3.5027918    2.1526544   -1.3501374    1.4466763   0.84902284 
        4.87   -3.5071774    2.1764572   -1.3307202    1.4626729   0.82102407 
       4.875   -3.5016509     2.188162    -1.313489     1.470539   0.81733652 
        4.88   -3.4863362    2.1879778   -1.2983583    1.4704152   0.83744098 
       4.885   -3.4625628    2.1791665   -1.2833963    1.4644936   0.87624778 
        4.89   -3.4387847    2.1694046   -1.2693801    1.4579332   0.91601476 
       4.895   -3.4253567    2.1688074   -1.2565493    1.4575319   0.93421761 
[...]
      48.835   -3.3872971    2.2274082   -1.1598888    1.4969141    1.4793913 
       48.84   -3.3897092    2.2151868   -1.1745224    1.4887008    1.4666428 
      48.845   -3.3943713    2.2049423    -1.189429    1.4818161    1.4481758 
       48.85   -3.4013722    2.1956246   -1.2057476    1.4755542     1.424958 
      48.855    -3.409674    2.1854042   -1.2242698    1.4686856    1.4000951 
       48.86   -3.4165091    2.1727163   -1.2437928    1.4601588     1.378494 
      48.865   -3.4212713    2.1570254    -1.264246    1.4496138    1.3616311 
       48.87   -3.4246252    2.1390672    -1.285558    1.4375451    1.3482831 
      48.875   -3.4285895    2.1204338   -1.3081557    1.4250227    1.3348191 
       48.88   -3.4333029    2.1026909    -1.330612    1.4130987    1.3197128 
      48.885   -3.4395245     2.086591   -1.3529334    1.4022789    1.3015809 
       48.89    -3.447214    2.0717385   -1.3754754    1.3922974    1.2811657 
      48.895   -3.4549805    2.0567897   -1.3981908    1.3822511    1.2617477 
        48.9   -3.4594597    2.0399788   -1.4194809    1.3709535    1.2492502 
      48.905   -3.4591505    2.0197076   -1.4394429    1.3573304    1.2472552 
       48.91   -3.4542533     1.995134   -1.4591193    1.3408159    1.2565838 
      48.915   -3.4436404    1.9668354    -1.476805     1.321798    1.2780024 
       48.92   -3.4300949    1.9372996   -1.4927953    1.3019486    1.3057431 
      48.925   -3.4167441    1.9100758   -1.5066683    1.2836531    1.3323594 
       48.93   -3.4054743    1.8873621   -1.5181122    1.2683885    1.3531087 
      48.935   -3.3977231    1.8686648   -1.5290583    1.2558231    1.3665925 
       48.94   -3.3907591    1.8526223   -1.5381368    1.2450419    1.3770583 
      48.945   -3.3839327    1.8396087    -1.544324    1.2362962    1.3846274 
       48.95   -3.3813255    1.8319399   -1.5493856    1.2311424    1.3821674 
      48.955   -3.3847535    1.8319218   -1.5528317    1.2311303    1.3652953 
       48.96   -3.3949427    1.8399806    -1.554962    1.2365461    1.3329554 
      48.965   -3.4107828    1.8544219    -1.556361    1.2462513    1.2884226 
       48.97   -3.4276957    1.8725467    -1.555149    1.2584319    1.2399266 
      48.975   -3.4445116    1.8918884   -1.5526231    1.2714304    1.1916276 
       48.98   -3.4593444    1.9107753   -1.5485691    1.2841232    1.1476218 
      48.985   -3.4719642    1.9284024   -1.5435618    1.2959694    1.1091793 
       48.99   -3.4810025    1.9447909   -1.5362117    1.3069831    1.0779691 
      48.995   -3.4889234    1.9606542   -1.5282692    1.3176439    1.0505641 
          49   -3.4954311    1.9771919   -1.5182393     1.328758    1.0261072 
      49.005   -3.5040377     1.995605   -1.5084327    1.3411324   0.99950967 
       49.01   -3.5125103    2.0164407   -1.4960696    1.3551349   0.97287331 
      49.015   -3.5224158    2.0391409   -1.4832749    1.3703904   0.94525476 
       49.02   -3.5320325    2.0620155    -1.470017    1.3857631   0.92051367 
      49.025   -3.5384941    2.0827858   -1.4557083    1.3997217   0.90433547 
       49.03   -3.5398069    2.0993316   -1.4404753    1.4108411   0.90114398 
      49.035   -3.5349452    2.1103348   -1.4246104    1.4182357    0.9132332 
       49.04   -3.5228457    2.1157417    -1.407104    1.4218694   0.94148451 
      49.045   -3.5070903     2.116862   -1.3902283    1.4226223   0.98005119 
       49.05   -3.4886593    2.1162422   -1.3724171    1.4222058    1.0246272 
      49.055   -3.4738621    2.1173019   -1.3565601     1.422918    1.0640814 
       49.06   -3.4633592      2.12356   -1.3397993    1.4271236    1.0935196 
      49.065   -3.4615183    2.1375509   -1.3239674    1.4365261    1.1050419 
       49.07   -3.4679108    2.1597977   -1.3081131    1.4514769    1.0983483 
      49.075   -3.4805904    2.1884226   -1.2921678    1.4707141    1.0774382 
       49.08   -3.4965687    2.2198392   -1.2767295    1.4918274    1.0493172 
      49.085   -3.5125645    2.2500117   -1.2625527    1.5121047    1.0218095 
       49.09   -3.5246271    2.2754247   -1.2492024    1.5291833    1.0028777 
      49.095   -3.5292282    2.2935462    -1.235682    1.5413617   0.99893107 
        49.1   -3.5267395    2.3030677   -1.2236718    1.5477605    1.0107946 
      49.105   -3.5160237    2.3040886    -1.211935    1.5484467     1.039428 
       49.11   -3.5003961    2.2982276   -1.2021686    1.5445078    1.0791776 
      49.115   -3.4823847    2.2882645   -1.1941202    1.5378122    1.1240555 
       49.12   -3.4644243    2.2772144   -1.1872099     1.530386    1.1679596 
      49.125   -3.4495495    2.2675962   -1.1819533    1.5239222    1.2046932 
       49.13   -3.4373012    2.2611288   -1.1761724    1.5195758    1.2327256 
      49.135   -3.4302486    2.2585608   -1.1716878      1.51785    1.2482102 
       49.14   -3.4280993    2.2599194   -1.1681799     1.518763    1.2513194 
      49.145   -3.4308547    2.2655879   -1.1652667    1.5225725    1.2416488 
       49.15   -3.4397893    2.2768845   -1.1629048    1.5301643    1.2166347 
      49.155   -3.4557917    2.2944398   -1.1613519    1.5419622    1.1750154 
       49.16   -3.4767231    2.3159517   -1.1607714    1.5564192    1.1219546 
      49.165   -3.4970175    2.3364507   -1.1605668    1.5701954    1.0691997 
       49.17   -3.5108173    2.3512368   -1.1595805    1.5801323    1.0284877 
      49.175    -3.518028    2.3585939   -1.1594341    1.5850765    1.0021243 
       49.18    -3.520396    2.3599641    -1.160432    1.5859974   0.98719162 
      49.185   -3.5197608    2.3580879   -1.1616729    1.5847365   0.97937159 
       49.19   -3.5190031    2.3549225   -1.1640806    1.5826092   0.97394908 
      49.195   -3.5175927    2.3506442   -1.1669485     1.579734   0.97163121 
        49.2   -3.5147292    2.3438976   -1.1708316       1.5752   0.97487447 
      49.205   -3.5069369    2.3326325   -1.1743043    1.5676294   0.98960094 
       49.21   -3.4935215    2.3150991   -1.1784224    1.5558462     1.018238 
      49.215   -3.4735107    2.2907054   -1.1828053    1.5394525    1.0621959 
       49.22   -3.4480619     2.260438   -1.1876239    1.5191115    1.1187546 
      49.225   -3.4185256    2.2267885    -1.191737    1.4964977    1.1833129 
       49.23   -3.3899287    2.1931764   -1.1967523    1.4739088    1.2462877 
      49.235    -3.363856    2.1631009   -1.2007551    1.4536968    1.3016929 
       49.24   -3.3441182     2.139402   -1.2047162    1.4377701    1.3418568 
      49.245   -3.3320998    2.1237117   -1.2083881    1.4272256    1.3631109 
       49.25   -3.3279547    2.1163992   -1.2115555    1.4223113    1.3646115 
      49.255   -3.3320101    2.1169745   -1.2150357    1.4226979    1.3464702 
       49.26   -3.3427551     2.124462   -1.2182931    1.4277298    1.3116063 
      49.265   -3.3580361    2.1373525   -1.2206836    1.4363928    1.2643995 
       49.27   -3.3768687    2.1534603   -1.2234084    1.4472179    1.2088062 
      49.275   -3.3946156    2.1699356     -1.22468      1.45829    1.1534427 
       49.28   -3.4083314    2.1833889   -1.2249425    1.4673313    1.1055447 
      49.285   -3.4160753    2.1901294    -1.225946    1.4718611    1.0713324 
       49.29   -3.4133824    2.1865815    -1.226801    1.4694768    1.0592665 
      49.295   -3.3976004    2.1701396   -1.2274609    1.4584271    1.0744994 
        49.3   -3.3677438    2.1406105   -1.2271333    1.4385823    1.1176524 
      49.305   -3.3277833    2.1018114    -1.225972    1.4125077    1.1798354 
       49.31   -3.2857092    2.0619804   -1.2237288    1.3857395    1.2434651 
      49.315   -3.2531891    2.0314952   -1.2216939    1.3652521    1.2851572 
       49.32   -3.2379384    2.0185918   -1.2193466    1.3565805    1.2883036 
      49.325   -3.2429373    2.0262613    -1.216676    1.3617348    1.2470393 
       49.33   -3.2640531    2.0521339   -1.2119192    1.3791222    1.1687159 
      49.335    -3.297194     2.090434     -1.20676    1.4048616     1.064244 
       49.34   -3.3352555    2.1344567   -1.2007988    1.4344467   0.94878126 
      49.345    -3.370631    2.1785363   -1.1920946    1.4640701   0.83698678 
       49.35   -3.4009647     2.218947   -1.1820177    1.4912278   0.73593092 
      49.355   -3.4250012    2.2537862    -1.171215    1.5146413   0.64957874 
       49.36   -3.4421623    2.2822093    -1.159953    1.5337428   0.57993692 
      49.365   -3.4514369     2.303623   -1.1478139    1.5481337   0.52897148 
       49.37   -3.4525547    2.3172173   -1.1353374    1.5572697   0.49780867 
      49.375   -3.4451534    2.3219547   -1.1231986    1.5604535   0.48763414 
       49.38   -3.4277624    2.3169808   -1.1107815    1.5571108   0.50040606 
      49.385   -3.4002847     2.302357   -1.0979277    1.5472829   0.53554108 
       49.39    -3.365667     2.280209    -1.085458    1.5323985   0.58719425 
      49.395   -3.3272171    2.2559379   -1.0712792    1.5160873   0.64615011 
        49.4   -3.2964083    2.2381449   -1.0582634    1.5041296   0.69188655 
      49.405   -3.2801977    2.2357394   -1.0444583     1.502513    0.7085133 
       49.41   -3.2831473    2.2525989   -1.0305484    1.5138433   0.68778471 
      49.415   -3.2995192     2.284164   -1.0153552    1.5350565     0.640554 
       49.42     -3.31906     2.320315  -0.99874503    1.5593515   0.58770148 
      49.425   -3.3328937    2.3517277  -0.98116601    1.5804621   0.54770046 
       49.43   -3.3368856    2.3736158  -0.96326981    1.5951719   0.52959689 
      49.435   -3.3296744    2.3855446  -0.94412982    1.6031886   0.53528307 
       49.44   -3.3142758    2.3896206  -0.92465517    1.6059278   0.55956255 
      49.445   -3.2937103    2.3888296  -0.90488065    1.6053962   0.59622461 
       49.45   -3.2715867    2.3860663  -0.88552038    1.6035392   0.63841042 
      49.455   -3.2497601    2.3837226   -0.8660375    1.6019641   0.68148011 
       49.46   -3.2298631    2.3835586  -0.84630449    1.6018539   0.72161578 
      49.465   -3.2125171    2.3866173  -0.82589977    1.6039095   0.75671452 
       49.47   -3.1989872    2.3932434  -0.80574383    1.6083625   0.78472703 
      49.475   -3.1891702    2.4032136  -0.78595665    1.6150629   0.80561026 
       49.48   -3.1814459    2.4160643  -0.76538157    1.6236991   0.82114321 
      49.485   -3.1776894    2.4315052  -0.74618412    1.6340761   0.82940472 
       49.49   -3.1754074    2.4495304  -0.72587698    1.6461898   0.83275013 
      49.495   -3.1760725    2.4699979  -0.70607457    1.6599448   0.82966637 
        49.5   -3.1793183    2.4921466  -0.68717171    1.6748297   0.82110771 
      49.505   -3.1827151    2.5147229  -0.66799223    1.6900019   0.81062927 
       49.51   -3.1865091    2.5365111  -0.64999799    1.7046446    0.7990727 
      49.515   -3.1885015    2.5566668  -0.63183469    1.7181901    0.7894673 
       49.52   -3.1905548    2.5746332  -0.61592167    1.7302642   0.78043902 
      49.525   -3.1911641    2.5899095  -0.60125462    1.7405306   0.77401573 
       49.53   -3.1889815    2.6018987  -0.58708284    1.7485878   0.77216045 
      49.535   -3.1863195    2.6099111  -0.57640839    1.7539725    0.7731608 
       49.54   -3.1789995    2.6133478  -0.56565173    1.7562821    0.7817943 
      49.545   -3.1697074    2.6119731  -0.55773435    1.7553583   0.79542833 
       49.55    -3.157326     2.606313  -0.55101297    1.7515544   0.81454364 
      49.555   -3.1443614    2.5979211  -0.54644023    1.7459147   0.83501128 
       49.56   -3.1331452    2.5890385  -0.54410665    1.7399453   0.85225836 
      49.565   -3.1237648     2.581592  -0.54217271    1.7349409    0.8642611 
       49.57   -3.1199303    2.5762113  -0.54371894    1.7313248   0.86652807 
      49.575   -3.1184668     2.572142  -0.54632471    1.7285901   0.86286089 
       49.58   -3.1198895    2.5680891  -0.55180038    1.7258663   0.85378846 
      49.585   -3.1220261    2.5630752  -0.55895088    1.7224968   0.84223349 
       49.59    -3.125363    2.5566211  -0.56874187    1.7181594   0.82796768 
      49.595    -3.130785    2.5483608  -0.58242423     1.712608   0.81027391 
        49.6   -3.1366791    2.5376571  -0.59902195    1.7054147   0.79121333 
      49.605   -3.1430936    2.5236396  -0.61945393    1.6959944   0.77142833 
       49.61   -3.1493208    2.5055047  -0.64381619    1.6838069   0.75237285 
      49.615   -3.1542402    2.4826881  -0.67155206    1.6684732   0.73586656 
       49.62   -3.1586752      2.45457  -0.70410523    1.6495766   0.72197879 
      49.625   -3.1597705    2.4200779  -0.73969262    1.6263964   0.71514741 
       49.63   -3.1563213    2.3778538  -0.77846753      1.59802   0.71866279 
      49.635    -3.145463    2.3272224  -0.81824063    1.5639935    0.7370253 
       49.64   -3.1276422    2.2695678  -0.85807433    1.5252472   0.76946917 
      49.645   -3.1048759    2.2091849  -0.89569102    1.4846673   0.81075519 
       49.65   -3.0835954    2.1527011  -0.93089429    1.4467077   0.84864611 
      49.655   -3.0701832    2.1069041  -0.96327906    1.4159302   0.87041736 
       49.66   -3.0687645    2.0759674  -0.99279715    1.3951394   0.86782045 
      49.665   -3.0782224    2.0599849   -1.0182374    1.3843985   0.84171794 
       49.67   -3.0961703     2.055867   -1.0403034     1.381631   0.79739755 
      49.675    -3.118158    2.0594734   -1.0586845    1.3840547   0.74337444 
       49.68   -3.1422075    2.0672023   -1.0750051    1.3892489   0.68526815 
      49.685   -3.1649837    2.0764025   -1.0885812    1.3954318   0.62926203 
       49.69   -3.1853504    2.0850979   -1.1002525    1.4012754   0.57864232 
      49.695   -3.2025902    2.0917621   -1.1108281    1.4057541   0.53579579 
        49.7   -3.2156518    2.0952785   -1.1203732    1.4081173   0.50296798 
      49.705   -3.2219305     2.095091   -1.1268395    1.4079913   0.48333755 
       49.71   -3.2250532    2.0914597   -1.1335935    1.4055509   0.47286978 
      49.715   -3.2248392    2.0856759   -1.1391633    1.4016639   0.47031958 
       49.72   -3.2229264    2.0800605   -1.1428659    1.3978901   0.47161338 
      49.725   -3.2243371    2.0774114   -1.1469257    1.3961098   0.46876046 
       49.73   -3.2294861    2.0801016   -1.1493844    1.3979177   0.45889824 
      49.735   -3.2399082    2.0891547   -1.1507535    1.4040018   0.43940173 
       49.74   -3.2559698    2.1038352   -1.1521345    1.4138678   0.41062167 
      49.745    -3.275481    2.1220541   -1.1534269    1.4261116   0.37691224 
       49.75     -3.29455    2.1412961   -1.1532539    1.4390431   0.34484222 
      49.755   -3.3120948    2.1594915   -1.1526033    1.4512712   0.31781422 
       49.76   -3.3280728    2.1751878    -1.152885    1.4618198   0.29766684 
      49.765   -3.3386116    2.1871386    -1.151473    1.4698512   0.28996207 
       49.77   -3.3444152    2.1939421   -1.1504731    1.4744235   0.29569521 
      49.775   -3.3423903    2.1941172   -1.1482732    1.4745411    0.3197092 
       49.78   -3.3342326    2.1866962   -1.1475365    1.4695539   0.36136368 
      49.785   -3.3171305    2.1718666   -1.1452639    1.4595878   0.42346163 
       49.79   -3.2948638    2.1512925   -1.1435713    1.4457611   0.50047895 
      49.795   -3.2677589    2.1280059    -1.139753    1.4301115   0.58901726 
        49.8   -3.2410426    2.1055595   -1.1354831    1.4150266   0.67998848 
      49.805   -3.2165535    2.0866083   -1.1299452    1.4022905   0.76849492 
       49.81   -3.1954587    2.0717135   -1.1237453    1.3922805   0.85225795 
      49.815     -3.17623    2.0592533   -1.1169766    1.3839068   0.93381986 
       49.82   -3.1558476    2.0466339   -1.1092136     1.375426    1.0181577 
      49.825   -3.1320373    2.0318413    -1.100196    1.3654848    1.1088673 
       49.83   -3.1039839    2.0143715   -1.0896124    1.3537443    1.2065222 
      49.835   -3.0736575    1.9953246    -1.078333    1.3409439    1.3071308 
       49.84   -3.0417401    1.9771077   -1.0646324    1.3287014    1.4066648 
      49.845   -3.0130866    1.9630075   -1.0500791    1.3192255    1.4958556 
       49.85   -2.9906355    1.9565819   -1.0340536    1.3149072    1.5672175 
      49.855   -2.9784933    1.9609834     -1.01751    1.3178652    1.6126324 
       49.86   -2.9771817     1.978369  -0.99881269    1.3295491    1.6290146 
      49.865   -2.9893328    2.0094431  -0.97988975    1.3504322    1.6128451 
       49.87   -3.0113157    2.0529258   -0.9583899    1.3796544    1.5694568 
      49.875   -3.0412358    2.1055183  -0.93571751    1.4149988    1.5046224 
       49.88   -3.0765059    2.1630515  -0.91345437    1.4536636    1.4259392 
      49.885   -3.1124716     2.221888   -0.8905836    1.4932043    1.3427163 
       49.89   -3.1473125    2.2792241  -0.86808839    1.5317366    1.2603655 
      49.895   -3.1789618    2.3325756  -0.84638619    1.5675912     1.184193 
        49.9   -3.2046689    2.3796464  -0.82502253    1.5992247    1.1198989 
      49.905   -3.2240446      2.41908  -0.80496457    1.6257258    1.0695617 
       49.91    -3.236888    2.4511595  -0.78572852    1.6472846    1.0333348 
      49.915   -3.2451012    2.4774733  -0.76762784    1.6649686    1.0077435 
       49.92   -3.2521762    2.4998574  -0.75231876    1.6800117   0.98729015 
      49.925   -3.2573769    2.5194057   -0.7379712     1.693149    0.9716154 
       49.93    -3.261001    2.5361416  -0.72485933    1.7043963   0.96024031 
      49.935   -3.2651021    2.5493563  -0.71574582    1.7132771   0.95151755 
       49.94    -3.266222    2.5582387  -0.70798333    1.7192464   0.94980082 
      49.945   -3.2638287    2.5624145  -0.70141415    1.7220528   0.95593952 
       49.95   -3.2597191    2.5621458  -0.69757326    1.7218722   0.96771147 
      49.955   -3.2533789    2.5581254  -0.69525357    1.7191703   0.98489865 
       49.96   -3.2459013    2.5511259  -0.69477538    1.7144663    1.0053883 
      49.965   -3.2380528    2.5417372  -0.69631553    1.7081567    1.0275057 
       49.97   -3.2297128    2.5303451  -0.69936761    1.7005008     1.050647 
      49.975   -3.2221994    2.5175362  -0.70466326    1.6918926    1.0724044 
       49.98   -3.2150929    2.5046898  -0.71040307    1.6832593    1.0914467 
      49.985   -3.2119178    2.4940268  -0.71789101    1.6760933    1.1014035 
       49.99   -3.2143912    2.4877693  -0.72662191    1.6718879    1.0979056 
      49.995   -3.2231137    2.4871534  -0.73596037     1.671474    1.0789141 
          50   -3.2397186    2.4919831  -0.74773555    1.6747198    1.0428308 
Loop time of 2.33439 on 8 procs for 10000 steps with 125 atoms

Performance: 1850587.365 tau/day, 4283.767 timesteps/s
109.8% CPU use with 1 MPI tasks x 8 OpenMP threads

MPI task timing breakdown:
Section |  min time  |  avg time  |  max time  |%varavg| %total
---------------------------------------------------------------
Pair    | 0.75334    | 0.75334    | 0.75334    |   0.0 | 32.27
Neigh   | 0.012959   | 0.012959   | 0.012959   |   0.0 |  0.56
Comm    | 0.042812   | 0.042812   | 0.042812   |   0.0 |  1.83
Output  | 0.26615    | 0.26615    | 0.26615    |   0.0 | 11.40
Modify  | 1.2482     | 1.2482     | 1.2482     |   0.0 | 53.47
Other   |            | 0.01096    |            |       |  0.47

Nlocal:        125.000 ave         125 max         125 min
Histogram: 1 0 0 0 0 0 0 0 0 0
Nghost:        1698.00 ave        1698 max        1698 min
Histogram: 1 0 0 0 0 0 0 0 0 0
Neighs:        12392.0 ave       12392 max       12392 min
Histogram: 1 0 0 0 0 0 0 0 0 0

Total # of neighbors = 12392
Ave neighs/atom = 99.136000
Neighbor list builds = 187
Dangerous builds = 0
unfix nve
ERROR: Could not find fix ID to delete (src/modify.cpp:1037)
Last command: unfix nve
