
### SPECIFY THE NUMBER OF PRODUCTION STEPS ###
variable Nprod equal 30000

### ASSIGN ATOMIC VELOCITIES ###
velocity all create ${T} 12345 dist gaussian rot yes mom yes
velocity all create 1.5 12345 dist gaussian rot yes mom yes

### SPECIFY ENSEMBLE ###
timestep ${timestep}
timestep 0.01
fix 1 all npt temp ${T} ${T} 0.1 iso ${p} ${p} 1.0
fix 1 all npt temp 1.5 ${T} 0.1 iso ${p} ${p} 1.0
fix 1 all npt temp 1.5 1.5 0.1 iso ${p} ${p} 1.0
fix 1 all npt temp 1.5 1.5 0.1 iso 1 ${p} 1.0
fix 1 all npt temp 1.5 1.5 0.1 iso 1 1 1.0

### THERMODYNAMIC OUTPUT CONTROL ###
thermo_style custom time pe ke etotal temp press
thermo 1

### RECORD TRAJECTORY ###
dump traj all custom 1000 traj.dump id x y z

### SPECIFY TIMESTEP ###
variable n_steps equal floor(50/${timestep})
variable n_steps equal floor(50/0.01)
timestep ${timestep}
timestep 0.01

### RUN SIMULATION TO MELT CRYSTAL ###
run ${n_steps}
run 5000
Last active /omp style is pair_style lj/cut/omp
Neighbor list info ...
  update every 1 steps, delay 10 steps, check yes
  max neighbors/atom: 2000, page size: 100000
  master list distance cutoff = 4.5
  ghost atom cutoff = 4.5
  binsize = 2.25, bins = 3 3 3
  1 neighbor lists, perpetual/occasional/extra = 1 0 0
  (1) pair lj/cut/omp, perpetual
      attributes: half, newton on, omp
      pair build: half/bin/atomonly/newton/omp
      stencil: half/bin/3d/newton
      bin: standard
Per MPI rank memory allocation (min/avg/max) = 10.63 | 10.63 | 10.63 Mbytes
Time PotEng KinEng TotEng Temp Press 
           0   -5.2647711        2.232   -3.0327711          1.5   0.89516323 
        0.01   -5.2123248    2.1791142   -3.0332106    1.4644584     1.091619 
        0.02   -5.0514766    2.0196836    -3.031793    1.3573142    1.6836777 
        0.03    -4.782447    1.7632971   -3.0191499    1.1850115    2.6389839 
        0.04   -4.4538018     1.459782   -2.9940197   0.98103631      3.77267 
        0.05   -4.1831882    1.2147708   -2.9684174   0.81637826    4.6880164 
        0.06   -4.0790921    1.1260129   -2.9530791   0.75672913    5.0200678 
        0.07   -4.1298712    1.1923064   -2.9375648   0.80128117    4.7903406 
        0.08   -4.2481673    1.3343722   -2.9137951   0.89675549    4.2832743 
        0.09    -4.358758    1.4748642   -2.8838938   0.99117219    3.7528606 
         0.1   -4.4355861    1.5791082   -2.8564779    1.0612286    3.3013947 
        0.11   -4.4818972    1.6511336   -2.8307635    1.1096328    2.9262044 
        0.12   -4.5193273    1.7077096   -2.8116177    1.1476543    2.5798724 
        0.13    -4.554254    1.7629857   -2.7912683    1.1848022    2.2406329 
        0.14   -4.5935478    1.8252637   -2.7682841    1.2266557    1.8917025 
        0.15   -4.6386236    1.8959017   -2.7427219    1.2741275    1.5336897 
        0.16   -4.6824133    1.9717957   -2.7106176    1.3251315    1.1850791 
        0.17    -4.723337    2.0489826   -2.6743544    1.3770044   0.85585541 
        0.18   -4.7581071    2.1242202   -2.6338869    1.4275674   0.55645695 
        0.19   -4.7858025    2.1947112   -2.5910912    1.4749403   0.29238848 
         0.2    -4.801877    2.2548657   -2.5470113    1.5153667  0.078699607 
        0.21   -4.8007819     2.295297   -2.5054848    1.5425383 -0.062804383 
        0.22   -4.7728756    2.3083926    -2.464483    1.5513391  -0.10835373 
        0.23   -4.7205242    2.2939726   -2.4265516    1.5416483 -0.062975346 
        0.24   -4.6535751    2.2611747   -2.3924004    1.5196066  0.044080518 
        0.25    -4.586036    2.2226301   -2.3634059     1.493703   0.17294704 
        0.26   -4.5202007    2.1855048   -2.3346959    1.4687532   0.31028816 
        0.27   -4.4609826    2.1533834   -2.3075992    1.4471663   0.44417949 
        0.28   -4.4093895    2.1286448   -2.2807447    1.4305408   0.56965352 
        0.29   -4.3620778    2.1103154   -2.2517624    1.4182227   0.69118678 
         0.3   -4.3138972    2.0913412    -2.222556    1.4054713   0.82204747 
        0.31    -4.254279    2.0648988   -2.1893802    1.3877008   0.98154209 
        0.32   -4.1974326    2.0417736    -2.155659    1.3721597    1.1289604 
        0.33   -4.1686243    2.0470098   -2.1216145    1.3756786    1.1901068 
        0.34   -4.1771833    2.0876659   -2.0895174    1.4030013    1.1438965 
        0.35    -4.193613    2.1389868   -2.0546262    1.4374911    1.0706593 
        0.36   -4.1868066    2.1715282   -2.0152783    1.4593604    1.0560041 
        0.37   -4.1545143    2.1788933    -1.975621      1.46431    1.1107269 
        0.38   -4.1207973    2.1824343    -1.938363    1.4666897    1.1728111 
        0.39   -4.1122545    2.2080019   -1.9042526    1.4838722    1.1708031 
         0.4   -4.1244826    2.2502648   -1.8742178    1.5122747    1.1221974 
        0.41   -4.1241832    2.2840633   -1.8401199    1.5349888    1.1100438 
        0.42   -4.1109282    2.3032463   -1.8076819    1.5478806    1.1410418 
        0.43   -4.0989467    2.3177718    -1.781175    1.5576423    1.1798121 
        0.44   -4.0916745    2.3344986   -1.7571759    1.5688834    1.2111803 
        0.45    -4.090168    2.3543665   -1.7358015    1.5822356    1.2301357 
        0.46   -4.0915674    2.3737096   -1.7178577     1.595235     1.244472 
        0.47   -4.0912273    2.3876459   -1.7035814    1.6046007    1.2630377 
        0.48   -4.0786754    2.3860375   -1.6926378    1.6035198    1.3127322 
        0.49   -4.0528312    2.3700583   -1.6827729    1.5927811    1.3904692 
         0.5   -4.0318473    2.3532506   -1.6785967    1.5814856    1.4509193 
        0.51   -4.0201635    2.3428335   -1.6773301    1.5744848    1.4788332 
        0.52    -4.019257    2.3418255   -1.6774314    1.5738075    1.4716693 
        0.53   -4.0373195    2.3545697   -1.6827497    1.5823721    1.4142034 
        0.54   -4.0547469    2.3650835   -1.6896634    1.5894378    1.3547366 
        0.55   -4.0450363    2.3461975   -1.6988388    1.5767456    1.3646527 
        0.56   -4.0089349    2.3014224   -1.7075125    1.5466549    1.4324399 
        0.57   -3.9783109    2.2597646   -1.7185464     1.518659    1.4739746 
        0.58   -3.9780531    2.2457513   -1.7323018    1.5092415    1.4234465 
        0.59   -4.0058419     2.257139   -1.7487029    1.5168945    1.2884734 
         0.6    -4.033723    2.2680786   -1.7656444    1.5242464    1.1447865 
        0.61   -4.0407977    2.2606015   -1.7801963    1.5192214    1.0466569 
        0.62   -4.0310021    2.2370869   -1.7939152    1.5034186   0.98916159 
        0.63   -4.0203068    2.2093443   -1.8109625    1.4847744   0.93936186 
        0.64   -4.0107512    2.1837146   -1.8270366    1.4675501   0.88869542 
        0.65   -3.9996502    2.1556684   -1.8439818    1.4487019   0.84810552 
        0.66   -3.9776325    2.1184306   -1.8592019    1.4236765   0.83921143 
        0.67   -3.9479908    2.0750563   -1.8729345    1.3945271   0.85451475 
        0.68   -3.9199006    2.0378605   -1.8820402    1.3695299   0.86595257 
        0.69    -3.898987    2.0094702   -1.8895169    1.3504504   0.86319783 
         0.7   -3.8732527    1.9810766   -1.8921761    1.3313687   0.87542584 
        0.71   -3.8458713     1.955727   -1.8901444    1.3143326   0.89576201 
        0.72   -3.8239494    1.9418994     -1.88205    1.3050399   0.90530981 
        0.73   -3.8052354    1.9363869   -1.8688485    1.3013353   0.91437436 
        0.74   -3.7841347    1.9369102   -1.8472245     1.301687   0.93427519 
        0.75   -3.7698108    1.9497677   -1.8200431    1.3103277   0.94630449 
        0.76   -3.7649496    1.9798004   -1.7851493     1.330511   0.94107647 
        0.77   -3.7652916    2.0215454   -1.7437462    1.3585654   0.93004988 
        0.78   -3.7624827      2.06469   -1.6977927    1.3875605   0.93373468 
        0.79   -3.7562027     2.105161   -1.6510417    1.4147588   0.95219672 
         0.8   -3.7482992    2.1447768   -1.6035225    1.4413822   0.97449371 
        0.81   -3.7470967    2.1861329   -1.5609638    1.4691753   0.98227704 
        0.82   -3.7553059    2.2324337   -1.5228722    1.5002915   0.96510161 
        0.83   -3.7725541     2.280907    -1.491647    1.5328676   0.92562861 
        0.84    -3.781955    2.3174688   -1.4644862    1.5574387     0.903027 
        0.85   -3.7760423    2.3312974   -1.4447449    1.5667321   0.92020807 
        0.86   -3.7530975    2.3251352   -1.4279624    1.5625908   0.97450426 
        0.87   -3.7248672    2.3081311   -1.4167361    1.5511634    1.0401056 
        0.88   -3.7012708    2.2941943   -1.4070765    1.5417972    1.0879992 
        0.89   -3.6948338    2.2943135   -1.4005203    1.5418773    1.0891367 
         0.9   -3.6953386    2.2987921   -1.3965464    1.5448872     1.068543 
        0.91   -3.6784531    2.2854822   -1.3929709    1.5359423    1.0818254 
        0.92   -3.6394034    2.2513171   -1.3880863    1.5129819    1.1373326 
        0.93    -3.616616    2.2349763   -1.3816397    1.5020002    1.1406785 
        0.94   -3.6582828    2.2728011   -1.3854817    1.5274201   0.98669087 
        0.95   -3.7223822    2.3344166   -1.3879656    1.5688284   0.77084518 
        0.96   -3.7593522    2.3696659   -1.3896862    1.5925174   0.61886504 
        0.97     -3.76028    2.3685273   -1.3917527    1.5917522   0.55820841 
        0.98   -3.7559484    2.3593631   -1.3965853    1.5855935   0.52118859 
        0.99   -3.7713028    2.3644158    -1.406887    1.5889891   0.45430344 
           1   -3.7936164    2.3756043    -1.418012    1.5965083    0.3859793 
        1.01   -3.8059893     2.370962   -1.4350274    1.5933884   0.36244299 
        1.02   -3.7833634    2.3292174    -1.454146    1.5653343   0.43930305 
        1.03   -3.7268136    2.2514734   -1.4753402     1.513087   0.61150853 
        1.04   -3.6576965    2.1617305    -1.495966    1.4527759   0.81964184 
        1.05   -3.6065076    2.0913077   -1.5151999    1.4054487   0.98285032 
        1.06   -3.5918854     2.056439   -1.5354465    1.3820154      1.05125 
        1.07   -3.5994701    2.0467776   -1.5526925    1.3755226    1.0543077 
        1.08   -3.6190999    2.0510899     -1.56801    1.3784206    1.0177975 
        1.09   -3.6431315    2.0628814   -1.5802502     1.386345   0.96094898 
         1.1   -3.6673448    2.0761347   -1.5912101    1.3952518   0.89862499 
        1.11   -3.6851141    2.0850228   -1.6000912     1.401225   0.84845602 
        1.12    -3.694321    2.0872438   -1.6070772    1.4027176   0.81815212 
        1.13   -3.6960522    2.0836449   -1.6124074     1.400299   0.80741303 
        1.14    -3.690335    2.0749199   -1.6154151    1.3944354   0.81763145 
        1.15    -3.676922    2.0606311   -1.6162908    1.3848327   0.85124956 
        1.16   -3.6522262    2.0403537   -1.6118725    1.3712054   0.91534364 
        1.17   -3.6252385    2.0221253   -1.6031132    1.3589552   0.99127502 
        1.18   -3.6069289     2.018352   -1.5885769    1.3564193    1.0519192 
        1.19   -3.5968833    2.0291557   -1.5677276    1.3636799    1.0999363 
         1.2   -3.5876226    2.0474263   -1.5401962    1.3759586    1.1547005 
        1.21   -3.5776438    2.0735044   -1.5041394    1.3934842    1.2154644 
        1.22   -3.5695847    2.1109957    -1.458589    1.4186799    1.2720686 
        1.23   -3.5719744    2.1652516   -1.4067228    1.4551422    1.3036576 
        1.24   -3.5881306    2.2356103   -1.3525204    1.5024263    1.2997891 
        1.25   -3.6005756    2.3025283   -1.2980472    1.5473981    1.2993326 
        1.26   -3.5972737    2.3509259   -1.2463478    1.5799233    1.3282713 
        1.27   -3.5869221    2.3867131   -1.2002091    1.6039738    1.3646212 
        1.28   -3.5840637    2.4216842   -1.1623795    1.6274759    1.3776926 
        1.29   -3.5920579    2.4570659    -1.134992     1.651254    1.3646277 
         1.3    -3.595992    2.4808647   -1.1151273    1.6672478    1.3610141 
        1.31    -3.584407    2.4824689   -1.1019382    1.6683259    1.3945759 
        1.32   -3.5563687    2.4616687      -1.0947    1.6543472    1.4663095 
        1.33   -3.5207248     2.426276   -1.0944488    1.6305618    1.5542128 
        1.34   -3.4847033    2.3860723   -1.0986309    1.6035432    1.6348834 
        1.35   -3.4586025     2.352681   -1.1059214    1.5811029    1.6797763 
        1.36   -3.4585923     2.342308   -1.1162844    1.5741317    1.6485192 
        1.37    -3.492496    2.3603245   -1.1321716    1.5862396    1.5250857 
        1.38    -3.534358     2.383906    -1.150452    1.6020874    1.3713059 
        1.39   -3.5542351      2.38516    -1.169075    1.6029301    1.2610594 
         1.4   -3.5531291    2.3638526   -1.1892765    1.5886106    1.1960391 
        1.41   -3.5493592    2.3359784   -1.2133808    1.5698779    1.1372084 
        1.42   -3.5505637    2.3097798   -1.2407839    1.5522713    1.0681852 
        1.43   -3.5536354    2.2839549   -1.2696805    1.5349159   0.99435936 
        1.44   -3.5451378    2.2481082   -1.2970297    1.5108254   0.94538605 
        1.45   -3.5204876    2.1948158   -1.3256718    1.4750106   0.93794898 
        1.46   -3.4873173    2.1337218   -1.3535955    1.4339528   0.95358944 
        1.47   -3.4603956    2.0814212   -1.3789744    1.3988046   0.95653109 
        1.48    -3.445393    2.0435444   -1.4018486    1.3733497   0.93435688 
        1.49   -3.4377335    2.0171854   -1.4205481    1.3556353   0.89636214 
         1.5   -3.4411248    2.0060535   -1.4350714    1.3481542   0.83465791 
        1.51    -3.463419    2.0167021   -1.4467169    1.3553105   0.73197158 
        1.52   -3.4910985    2.0370418   -1.4540567    1.3689797   0.61976827 
        1.53   -3.5020069    2.0479022   -1.4541047    1.3762784   0.54762274 
        1.54   -3.4962883    2.0446375   -1.4516508    1.3740843   0.52113428 
        1.55   -3.4756251    2.0317293   -1.4438958    1.3654095   0.53398235 
        1.56   -3.4487369    2.0174944   -1.4312425     1.355843   0.56796265 
        1.57   -3.4301137    2.0166683   -1.4134454    1.3552879   0.59039568 
        1.58   -3.4317711     2.041507   -1.3902641    1.3719805   0.57528397 
        1.59    -3.451968    2.0924158   -1.3595522    1.4061934   0.52778145 
         1.6   -3.4784306    2.1588261   -1.3196046     1.450824   0.47590348 
        1.61   -3.4912991    2.2228324   -1.2684666     1.493839   0.46385214 
        1.62   -3.4855882    2.2767557   -1.2088324    1.5300778   0.50357382 
        1.63    -3.474527    2.3268778   -1.1476491     1.563762   0.56614708 
        1.64   -3.4593108    2.3734414   -1.0858694    1.5950547   0.64215989 
        1.65   -3.4370797    2.4091277    -1.027952    1.6190375   0.73528269 
        1.66   -3.4118178    2.4329038  -0.97891396     1.635016   0.83453908 
        1.67   -3.3877125    2.4474818  -0.94023072     1.644813   0.92732212 
        1.68   -3.3659166    2.4545142  -0.91140243    1.6495391    1.0096647 
        1.69   -3.3539791    2.4634848  -0.89049423    1.6555678    1.0626097 
         1.7   -3.3672022    2.4862535  -0.88094878    1.6708693    1.0557913 
        1.71      -3.3937    2.5163882  -0.87731184    1.6911211    1.0130468 
        1.72   -3.4124323    2.5328648  -0.87956752    1.7021941   0.98461158 
        1.73   -3.4066549     2.518718  -0.88793688    1.6926868    1.0098317 
        1.74   -3.3778047     2.478339  -0.89946567    1.6655504    1.0839234 
        1.75   -3.3562104    2.4411901  -0.91502037    1.6405847    1.1382118 
        1.76   -3.3525021    2.4156568  -0.93684526    1.6234253     1.148827 
        1.77   -3.3333143    2.3756353  -0.95767899    1.5965291    1.1884985 
        1.78   -3.3076802    2.3315695  -0.97611075     1.566915    1.2369354 
        1.79    -3.311303    2.3116695  -0.99963347    1.5535413     1.220229 
         1.8   -3.3211294    2.2971657   -1.0239636    1.5437942    1.1891232 
        1.81   -3.3001265    2.2560809   -1.0440456    1.5161834    1.2210857 
        1.82   -3.2612722    2.2030949   -1.0581773    1.4805745      1.28818 
        1.83   -3.2675138    2.1907313   -1.0767825    1.4722657    1.2523774 
        1.84   -3.3072571    2.2118369   -1.0954201    1.4864495     1.137691 
        1.85   -3.3449372    2.2347349   -1.1102023     1.501838    1.0200177 
        1.86   -3.3785112    2.2531214   -1.1253899    1.5141945   0.90790398 
        1.87   -3.3999206    2.2583916    -1.141529    1.5177363   0.82405839 
        1.88   -3.3975839     2.241809   -1.1557749    1.5065921   0.79466865 
        1.89   -3.3785999    2.2097981   -1.1688018    1.4850794   0.80586129 
         1.9   -3.3594719    2.1788064   -1.1806656    1.4642516   0.82014875 
        1.91   -3.3531931    2.1602733   -1.1929198    1.4517966   0.80862146 
        1.92   -3.3592451    2.1562885   -1.2029566    1.4491186   0.76760637 
        1.93   -3.3781478    2.1657774   -1.2123704    1.4554956    0.6963157 
        1.94   -3.4070946    2.1856816   -1.2214129    1.4688721   0.60058057 
        1.95   -3.4348518    2.2062248    -1.228627    1.4826779   0.50489729 
        1.96    -3.451352    2.2177556   -1.2335965    1.4904271    0.4336841 
        1.97   -3.4630499     2.224514   -1.2385358    1.4949691   0.37752661 
        1.98   -3.4860175    2.2393215    -1.246696    1.5049203   0.30577705 
        1.99   -3.5121787    2.2561922   -1.2559865    1.5162582   0.23518735 
           2   -3.5147944    2.2500077   -1.2647867    1.5121019   0.22708074 
        2.01   -3.4998048    2.2284959   -1.2713089    1.4976451   0.26991269 
        2.02   -3.5168542    2.2327114   -1.2841428    1.5004781   0.25485085 
        2.03   -3.5475167    2.2463204   -1.3011962     1.509624   0.22474218 
        2.04   -3.5456457    2.2292037    -1.316442    1.4981207   0.27694431 
        2.05   -3.5104073    2.1753408   -1.3350665    1.4619226   0.41719453 
        2.06   -3.4502039    2.0957739     -1.35443    1.4084502   0.62290579 
        2.07   -3.3809491     2.008228   -1.3727212    1.3496156   0.85299149 
        2.08     -3.32053    1.9295657   -1.3909642    1.2967512     1.063771 
        2.09   -3.2801328    1.8742778   -1.4058551    1.2595953    1.2233436 
         2.1    -3.274548    1.8560842   -1.4184638    1.2473684    1.2938449 
        2.11   -3.2980012    1.8684799   -1.4295213    1.2556989    1.2868528 
        2.12   -3.3288294    1.8959078   -1.4329217    1.2741316    1.2447447 
        2.13   -3.3708111    1.9368775   -1.4339336     1.301665    1.1643902 
        2.14    -3.419879    1.9901093   -1.4297697    1.3374391    1.0549868 
        2.15   -3.4684562    2.0455181   -1.4229381    1.3746761   0.94219332 
        2.16   -3.5031431    2.0936836   -1.4094596    1.4070454   0.85788094 
        2.17   -3.5280102    2.1348744   -1.3931359    1.4347274   0.80124995 
        2.18   -3.5469054    2.1726475   -1.3742579    1.4601126   0.76526164 
        2.19   -3.5570086     2.204592   -1.3524166    1.4815806   0.75686114 
         2.2   -3.5588235    2.2336174   -1.3252061     1.501087   0.77109845 
        2.21   -3.5713984    2.2739609   -1.2974375    1.5281996   0.76601663 
        2.22   -3.5989181    2.3296003   -1.2693179    1.5655916   0.73058118 
        2.23   -3.6238624    2.3826221   -1.2412404    1.6012245   0.70743262 
        2.24   -3.6242135    2.4088136   -1.2153999    1.6188264   0.75069446 
        2.25   -3.5858472    2.3972179   -1.1886293    1.6110336   0.88874778 
        2.26   -3.5258281    2.3638432   -1.1619849    1.5886043    1.0794262 
        2.27   -3.4826967    2.3435217    -1.139175    1.5749474    1.2317068 
        2.28   -3.4796288    2.3590124   -1.1206164    1.5853578    1.2876687 
        2.29   -3.5030557    2.3964926    -1.106563    1.6105461    1.2799494 
         2.3   -3.5137034    2.4216052   -1.0920982    1.6274229    1.2980941 
        2.31   -3.4972383    2.4186508   -1.0785875    1.6254373    1.3794943 
        2.32   -3.4775588    2.4080066   -1.0695522     1.618284    1.4689164 
        2.33    -3.476668    2.4090307   -1.0676373    1.6189722    1.5115803 
        2.34   -3.4808376    2.4123318   -1.0685058    1.6211907     1.536408 
        2.35   -3.4909711    2.4177657   -1.0732054    1.6248425    1.5401995 
        2.36   -3.5195466    2.4349752   -1.0845714    1.6364081    1.4928672 
        2.37   -3.5600494    2.4581732   -1.1018761    1.6519981    1.4110146 
        2.38   -3.6033068    2.4757468     -1.12756    1.6638084    1.3203737 
        2.39   -3.6391083    2.4766088   -1.1624994    1.6643876    1.2492114 
         2.4   -3.6581219    2.4525396   -1.2055824    1.6482121    1.2210546 
        2.41   -3.6555367    2.3993474   -1.2561893    1.6124646    1.2486645 
        2.42    -3.630054    2.3210785   -1.3089756    1.5598646    1.3314503 
        2.43   -3.6018634     2.243176   -1.3586874    1.5075107    1.4162755 
        2.44   -3.6085644    2.2014584    -1.407106    1.4794747    1.4120465 
        2.45   -3.6513238    2.1965475   -1.4547763    1.4761744    1.3188987 
        2.46    -3.689488    2.1970865   -1.4924015    1.4765366    1.2316114 
        2.47   -3.7111626    2.1852954   -1.5258672    1.4686125    1.1902362 
        2.48   -3.7125749    2.1599186   -1.5526563    1.4515582    1.2026725 
        2.49   -3.6946689    2.1195215   -1.5751474    1.4244096    1.2697474 
         2.5   -3.6544093    2.0635303   -1.5908791    1.3867811    1.3930821 
        2.51   -3.6022291    2.0007043   -1.6015248    1.3445593    1.5439575 
        2.52   -3.5577835    1.9489944   -1.6087891    1.3098081    1.6675656 
        2.53   -3.5281228     1.916951   -1.6111718    1.2882735    1.7374048 
        2.54   -3.5131004    1.9084409   -1.6046595    1.2825543    1.7511372 
        2.55   -3.5424442    1.9452021   -1.5972421    1.3072595    1.6439467 
        2.56   -3.6034738     2.015921   -1.5875529    1.3547856    1.4494482 
        2.57   -3.6464374    2.0756816   -1.5707558    1.3949473    1.2893394 
        2.58    -3.655239    2.1036854   -1.5515536    1.4137671    1.2088797 
        2.59   -3.6385981     2.108988   -1.5296101    1.4173306    1.1872518 
         2.6   -3.6231657    2.1159882   -1.5071774    1.4220351    1.1618569 
        2.61   -3.6288874    2.1443151   -1.4845723     1.441072     1.086022 
        2.62   -3.6602172    2.1950905   -1.4651267    1.4751952    0.9544459 
        2.63   -3.6908766    2.2460557   -1.4448209    1.5094461   0.83013225 
        2.64    -3.703222    2.2804349    -1.422787    1.5325504   0.75541209 
        2.65   -3.7035452    2.3025256   -1.4010196    1.5473962   0.71494105 
        2.66   -3.7008636     2.317121   -1.3837426     1.557205   0.69113613 
        2.67   -3.6906505    2.3243005   -1.3663501    1.5620299   0.68883903 
        2.68   -3.6805522    2.3277314   -1.3528207    1.5643356   0.69409585 
        2.69   -3.6757451    2.3327379   -1.3430072    1.5677002   0.69493327 
         2.7   -3.6732976    2.3360072   -1.3372904    1.5698973   0.69989481 
        2.71   -3.6558846    2.3206459   -1.3352387    1.5595739    0.7502607 
        2.72   -3.6018026    2.2701955   -1.3316071     1.525669   0.89077793 
        2.73   -3.5301843    2.2041962   -1.3259881    1.4813147    1.0744277 
        2.74    -3.497652    2.1730064   -1.3246456    1.4603538    1.1616586 
        2.75   -3.4950836    2.1723819   -1.3227017    1.4599341    1.1691143 
        2.76   -3.4945037    2.1798637     -1.31464    1.4649622    1.1608997 
        2.77     -3.52076    2.2121836   -1.3085764    1.4866825    1.0844919 
        2.78   -3.5640687    2.2613694   -1.3026993    1.5197375   0.96734439 
        2.79   -3.5934497    2.2970292   -1.2964205    1.5437024   0.88722068 
         2.8   -3.6009719    2.3126404   -1.2883316    1.5541938   0.86089037 
        2.81   -3.6014091    2.3204691   -1.2809401     1.559455    0.8566117 
        2.82   -3.6090124    2.3334955   -1.2755169    1.5682094   0.84277893 
        2.83   -3.6301416    2.3562024   -1.2739392    1.5834693   0.80619288 
        2.84   -3.6514889    2.3787689   -1.2727201     1.598635   0.77377677 
        2.85   -3.6583958    2.3830838    -1.275312    1.6015348   0.78285044 
        2.86   -3.6384491    2.3578971    -1.280552    1.5846083   0.85894191 
        2.87   -3.5997867    2.3108034   -1.2889833    1.5529593   0.97974076 
        2.88    -3.565513    2.2626392   -1.3028738    1.5205908    1.0882644 
        2.89   -3.5473038    2.2245465   -1.3227573    1.4949909    1.1535206 
         2.9   -3.5363946    2.1919266   -1.3444681    1.4730689    1.1901401 
        2.91   -3.5330425    2.1635844   -1.3694581    1.4540217    1.1989192 
        2.92   -3.5439843    2.1451816   -1.3988027    1.4416543    1.1651303 
        2.93   -3.5622358    2.1329193   -1.4293165    1.4334135    1.1045159 
        2.94   -3.5767862    2.1169991   -1.4597871    1.4227145    1.0454994 
        2.95   -3.5884201    2.0986611    -1.489759    1.4103905   0.98860587 
        2.96   -3.6068448     2.087744   -1.5191007    1.4030538   0.91175013 
        2.97   -3.6310066     2.082698   -1.5483086    1.3996626   0.82147732 
        2.98   -3.6499388    2.0763948   -1.5735441    1.3954266   0.74405539 
        2.99   -3.6673027    2.0704084   -1.5968944    1.3914035   0.67648588 
           3   -3.6814896    2.0642325   -1.6172571     1.387253   0.62522349 
        3.01   -3.6872503    2.0522648   -1.6349855    1.3792102   0.60641534 
        3.02   -3.6800105    2.0320444   -1.6479661    1.3656213   0.62980999 
        3.03   -3.6668531    2.0077386   -1.6591145    1.3492867   0.68327091 
        3.04    -3.652249    1.9876961    -1.664553    1.3358173   0.75109197 
        3.05    -3.637445    1.9690217   -1.6684233    1.3232673   0.83387745 
        3.06   -3.6003954    1.9348597   -1.6655357    1.3003089   0.97615479 
        3.07   -3.5366603    1.8793306   -1.6573297     1.262991    1.1858709 
        3.08   -3.4598922    1.8183447   -1.6415475    1.2220058    1.4220513 
        3.09   -3.3967004    1.7772459   -1.6194545    1.1943857    1.6176508 
         3.1   -3.3684995    1.7775643   -1.5909352    1.1945997      1.71762 
        3.11   -3.3844084    1.8289431   -1.5554654    1.2291284    1.6970787 
        3.12   -3.4337963    1.9200387   -1.5137576    1.2903486    1.5815379 
        3.13    -3.488434     2.020084     -1.46835    1.3575834    1.4412403 
        3.14    -3.517145    2.0977915   -1.4193536    1.4098061    1.3483364 
        3.15   -3.5167416    2.1434949   -1.3732467    1.4405208    1.3154298 
        3.16   -3.5072543     2.175685   -1.3315693    1.4621539    1.2931986 
        3.17   -3.5116078    2.2165397   -1.2950681      1.48961    1.2273545 
        3.18   -3.5375049    2.2718088   -1.2656962    1.5267532    1.1044315 
        3.19    -3.576144    2.3336696   -1.2424744    1.5683264   0.94792854 
         3.2   -3.6118395    2.3877883   -1.2240512    1.6046964   0.79809474 
        3.21    -3.633012    2.4228644   -1.2101475    1.6282691   0.68688378 
        3.22   -3.6379268    2.4379261   -1.2000007    1.6383912   0.62070612 
        3.23   -3.6295621    2.4341927   -1.1953694    1.6358822   0.59636153 
        3.24   -3.6063349    2.4117278    -1.194607    1.6207848   0.61677689 
        3.25   -3.5801332    2.3832467   -1.1968865    1.6016443   0.65246436 
        3.26   -3.5736556    2.3696673   -1.2039883    1.5925184   0.64930793 
        3.27   -3.5859525    2.3706856   -1.2152669    1.5932027   0.60661828 
        3.28   -3.5891708     2.362036   -1.2271348    1.5873898   0.58496905 
        3.29   -3.5688069    2.3263865   -1.2424204    1.5634318   0.62148612 
         3.3   -3.5262063    2.2687938   -1.2574125     1.524727   0.70889612 
        3.31   -3.4792524      2.20657   -1.2726824      1.48291   0.80636855 
        3.32   -3.4447668     2.156126   -1.2886408    1.4490094    0.8743837 
        3.33   -3.4274405    2.1260675    -1.301373    1.4288088     0.896591 
        3.34   -3.4348382    2.1201602    -1.314678    1.4248388    0.8607429 
        3.35   -3.4641565    2.1374339   -1.3267225    1.4364475   0.77134609 
        3.36   -3.4985325    2.1604296   -1.3381029    1.4519016   0.67162688 
        3.37   -3.5136581    2.1681527   -1.3455054    1.4570919   0.61837237 
        3.38   -3.5083365     2.155707   -1.3526295    1.4487278   0.62166282 
        3.39   -3.4866675    2.1285746   -1.3580929    1.4304937   0.67191491 
         3.4   -3.4520162    2.0902285   -1.3617877    1.4047234   0.76132112 
        3.41   -3.4092066    2.0458315   -1.3633752    1.3748867   0.87764804 
        3.42   -3.3732991    2.0132124   -1.3600867    1.3529653   0.98025593 
        3.43    -3.361249    2.0073607   -1.3538883    1.3490327    1.0280627 
        3.44   -3.3625242    2.0176331   -1.3448911    1.3559362    1.0447743 
        3.45   -3.3625916    2.0349751   -1.3276165    1.3675908    1.0594624 
        3.46   -3.3843764    2.0819817   -1.3023946    1.3991813    1.0179458 
        3.47    -3.441459    2.1653071    -1.276152    1.4551795   0.89805524 
        3.48    -3.496121    2.2536754   -1.2424456    1.5145668   0.78632081 
        3.49   -3.5290253    2.3235499   -1.2054753    1.5615255   0.73370444 
         3.5    -3.534314    2.3686966   -1.1656174     1.591866   0.75640799 
        3.51    -3.518452     2.394541    -1.123911    1.6092346   0.83996488 
        3.52   -3.4924136    2.4075743   -1.0848392    1.6179935   0.96171487 
        3.53   -3.4543024    2.4068444    -1.047458    1.6175029     1.120798 
        3.54   -3.3999545    2.3857716   -1.0141829    1.6033411    1.3243701 
        3.55   -3.3261672    2.3446063  -0.98156093    1.5756763     1.570156 
        3.56   -3.2533843     2.302271  -0.95111325    1.5472252     1.803981 
        3.57   -3.2104324    2.2860072  -0.92442517    1.5362952    1.9530554 
        3.58   -3.2221864    2.3223586  -0.89982786    1.5607249    1.9542846 
        3.59   -3.2932423    2.4125188  -0.88072356    1.6213164    1.7959751 
         3.6    -3.363739    2.5017353  -0.86200372    1.6812737    1.6231444 
        3.61   -3.4034114     2.554367  -0.84904439    1.7166445    1.5092811 
        3.62   -3.4066204    2.5642101  -0.84241028    1.7232595    1.4701131 
        3.63   -3.3901455    2.5493405  -0.84080497    1.7132665    1.4652238 
        3.64   -3.3953779    2.5473667  -0.84801121      1.71194    1.3994825 
        3.65   -3.4353585    2.5703779  -0.86498065    1.7274045    1.2463438 
        3.66   -3.4945598    2.6030497  -0.89151017    1.7493613    1.0443237 
        3.67   -3.5506349    2.6211455  -0.92948943    1.7615225   0.84923966 
        3.68   -3.5847004    2.6053918  -0.97930863    1.7509354   0.70706718 
        3.69   -3.5936186    2.5517743   -1.0418443    1.7149021   0.62777254 
         3.7   -3.5794726     2.466588   -1.1128846    1.6576533   0.60676379 
        3.71   -3.5479341    2.3609347   -1.1869994    1.5866497   0.63352416 
        3.72   -3.5070655    2.2527298   -1.2543357    1.5139313   0.68805165 
        3.73   -3.4766445    2.1654841   -1.3111604    1.4552985   0.72523295 
        3.74   -3.4598403    2.1048526   -1.3549877    1.4145515   0.73371726 
        3.75   -3.4381691    2.0554726   -1.3826965     1.381366   0.75130792 
        3.76   -3.4180523    2.0195152   -1.3985371    1.3572011   0.76409248 
        3.77   -3.4303381    2.0217389   -1.4085992    1.3586955   0.70543815 
        3.78    -3.483219    2.0670607   -1.4161583    1.3891537   0.55802687 
        3.79   -3.5345469      2.11511   -1.4194369    1.4214449   0.42058148 
         3.8   -3.5509975    2.1342172   -1.4167803    1.4342857   0.36840155 
        3.81   -3.5464923    2.1324017   -1.4140907    1.4330656   0.37448853 
        3.82   -3.5348076    2.1255371   -1.4092705    1.4284524   0.40388005 
        3.83   -3.5181644     2.115331   -1.4028334    1.4215934   0.45178966 
        3.84   -3.4953504    2.1021449   -1.3932055    1.4127318   0.51980852 
        3.85   -3.4840356    2.1017744   -1.3822612    1.4124828    0.5681668 
        3.86   -3.4961352    2.1247302    -1.371405    1.4279101   0.56968315 
        3.87   -3.5165757    2.1603407    -1.356235    1.4518419   0.55480663 
        3.88   -3.5352909    2.1973327   -1.3379582    1.4767021   0.54728361 
        3.89   -3.5502324    2.2302317   -1.3200006    1.4988116   0.55439067 
         3.9   -3.5512493    2.2515536   -1.2996957    1.5131408   0.59527868 
        3.91   -3.5405464    2.2600745   -1.2804718    1.5188673   0.66738261 
        3.92   -3.5314844    2.2717893   -1.2596951    1.5267401   0.73432801 
        3.93   -3.5455135    2.3042032   -1.2413103    1.5485237   0.74759334 
        3.94   -3.5716765    2.3487117   -1.2229647    1.5784353   0.72942792 
        3.95   -3.5908839    2.3834976   -1.2073862    1.6018129   0.72790824 
        3.96   -3.5921132    2.3984001   -1.1937131     1.611828   0.76747979 
        3.97   -3.5778139    2.3944922   -1.1833218    1.6092017   0.84617426 
        3.98   -3.5594471     2.384835   -1.1746121    1.6027117   0.93714749 
        3.99    -3.552896    2.3833222   -1.1695738     1.601695    1.0049839 
           4   -3.5526015    2.3859376   -1.1666638    1.6034527    1.0617767 
        4.01   -3.5476127    2.3799748    -1.167638    1.5994454    1.1342938 
        4.02   -3.5310894    2.3613951   -1.1696943    1.5869591     1.234994 
        4.03   -3.5200077    2.3443817    -1.175626    1.5755254    1.3240403 
        4.04   -3.5326494    2.3450855    -1.187564    1.5759983      1.35707 
        4.05   -3.5633687    2.3598038   -1.2035649    1.5858896    1.3414446 
        4.06   -3.5898848    2.3666597   -1.2232251    1.5904971    1.3292887 
        4.07   -3.5992195    2.3514895     -1.24773    1.5803021    1.3525541 
        4.08   -3.5918846    2.3144057   -1.2774789    1.5553802    1.4099128 
        4.09   -3.5715592    2.2629343   -1.3086248    1.5207892    1.4894712 
         4.1   -3.5568957    2.2145328   -1.3423629    1.4882613    1.5468779 
        4.11    -3.559875     2.180951    -1.378924    1.4656929    1.5523128 
        4.12   -3.5705432    2.1562548   -1.4142884     1.449096    1.5260357 
        4.13   -3.5791806    2.1311774   -1.4480032    1.4322429    1.4932894 
        4.14   -3.5836626    2.1041497   -1.4795129    1.4140791    1.4622214 
        4.15   -3.5896828    2.0818443   -1.5078385    1.3990889    1.4238405 
        4.16   -3.6113922    2.0800724   -1.5313198    1.3978981    1.3473215 
        4.17   -3.6605928    2.1054513   -1.5551415    1.4149539    1.2131606 
        4.18   -3.7113067    2.1361674   -1.5751393    1.4355964    1.0831878 
        4.19    -3.734379    2.1402717   -1.5941073    1.4383546    1.0302999 
         4.2   -3.7039521    2.0964797   -1.6074723    1.4089245    1.1093435 
        4.21   -3.6329598    2.0180658   -1.6148939     1.356227    1.2830925 
        4.22   -3.5767074     1.956871   -1.6198364    1.3151015    1.4117984 
        4.23   -3.5762274    1.9552156   -1.6210118     1.313989    1.3859288 
        4.24   -3.6226602    2.0009032    -1.621757     1.344693    1.2334294 
        4.25   -3.6711658    2.0554409   -1.6157249    1.3813447    1.0621082 
        4.26   -3.7047963    2.1009068   -1.6038896    1.4118997   0.92024179 
        4.27   -3.7344335    2.1444683   -1.5899652    1.4411749   0.79052741 
        4.28   -3.7666992    2.1909185   -1.5757807    1.4723915    0.6618103 
        4.29   -3.7844363    2.2248379   -1.5595984    1.4951868   0.57664386 
         4.3   -3.7732742    2.2313065   -1.5419677    1.4995339   0.57131664 
        4.31   -3.7425911    2.2201847   -1.5224064    1.4920596   0.62233256 
        4.32   -3.7249997    2.2225463   -1.5024533    1.4936467   0.65158702 
        4.33   -3.7390571    2.2531722    -1.485885    1.5142286    0.6175745 
        4.34   -3.7532375    2.2851508   -1.4680867    1.5357196   0.59418818 
        4.35   -3.7347316    2.2859042   -1.4488274    1.5362259   0.66126086 
        4.36   -3.6804841    2.2545576   -1.4259264    1.5151597   0.82172626 
        4.37   -3.6278318    2.2271996   -1.4006322    1.4967739   0.98527333 
        4.38   -3.6283003    2.2491657   -1.3791346    1.5115361     1.028961 
        4.39   -3.6692194    2.3154842   -1.3537351     1.556105   0.97488267 
         4.4    -3.707376    2.3843163   -1.3230596    1.6023631   0.92997064 
        4.41   -3.7238012     2.437985   -1.2858161    1.6384308   0.94197728 
        4.42    -3.732912     2.487607    -1.245305    1.6717789   0.97987072 
        4.43   -3.7269853    2.5298682   -1.1971171    1.7001802    1.0616295 
        4.44   -3.7071562    2.5631866   -1.1439696    1.7225716    1.1888735 
        4.45    -3.690302    2.6020191   -1.0882829    1.7486688    1.3167655 
        4.46   -3.6667282    2.6353989   -1.0313293    1.7711014    1.4641724 
        4.47   -3.6093021    2.6360268   -0.9732753    1.7715234    1.6879154 
        4.48   -3.5227943    2.6056579  -0.91713639    1.7511142    1.9664429 
        4.49   -3.4457513    2.5783832  -0.86736811    1.7327844    2.1966111 
         4.5   -3.4072908    2.5805131  -0.82677778    1.7342158    2.3031725 
        4.51   -3.4144275    2.6198315  -0.79459592    1.7606395    2.2669438 
        4.52   -3.4643085    2.6908569  -0.77345156    1.8083716    2.0994784 
        4.53   -3.5251213    2.7605638  -0.76455751    1.8552176    1.8859611 
        4.54   -3.5544744    2.7892792  -0.76519517    1.8745156    1.7329542 
        4.55   -3.5568583    2.7814705  -0.77538777    1.8692678    1.6350778 
        4.56   -3.5775748    2.7730066  -0.80456827    1.8635797     1.490708 
        4.57   -3.5993634    2.7487528  -0.85061059    1.8472801    1.3436047 
        4.58   -3.5815869    2.6751103  -0.90647655    1.7977892    1.2869261 
        4.59   -3.5372936    2.5684138  -0.96887982    1.7260845    1.2874948 
         4.6   -3.5092795    2.4714092   -1.0378702    1.6608933    1.2495247 
        4.61   -3.5137658    2.4058041   -1.1079617    1.6168038    1.1359916 
        4.62    -3.533324    2.3608136   -1.1725104    1.5865683   0.99102233 
        4.63   -3.5495678    2.3237881   -1.2257797    1.5616856   0.85823684 
        4.64   -3.5606293    2.2911013   -1.2695279    1.5397186   0.74752796 
        4.65   -3.5642791    2.2564467   -1.3078324    1.5164292   0.67035973 
        4.66   -3.5504352    2.2135722    -1.336863    1.4876157   0.64536349 
        4.67   -3.5277275    2.1678125   -1.3599149    1.4568633   0.65318056 
        4.68   -3.5059232     2.127388   -1.3785352    1.4296962   0.66941375 
        4.69   -3.4895887    2.0971946   -1.3923941     1.409405   0.68238889 
         4.7   -3.4881597    2.0855087   -1.4026511    1.4015515   0.66875735 
        4.71   -3.4953216    2.0842406    -1.411081    1.4006993   0.64410567 
        4.72   -3.4817853    2.0676348   -1.4141506    1.3895395   0.67188505 
        4.73   -3.4430642    2.0319982   -1.4110661    1.3655902   0.76011045 
        4.74   -3.4196761     2.014254   -1.4054221    1.3536654   0.81542897 
        4.75   -3.4379909    2.0358665   -1.4021244    1.3681898   0.77959487 
        4.76   -3.4612578    2.0683603   -1.3928975    1.3900271   0.73187951 
        4.77   -3.4681475    2.0899133   -1.3782342    1.4045116   0.71974483 
        4.78   -3.4624942    2.1024927   -1.3600016    1.4129655   0.73554807 
        4.79   -3.4541712      2.11485   -1.3393212    1.4212702   0.75797464 
         4.8   -3.4509709    2.1353103   -1.3156606    1.4350204   0.76879736 
        4.81   -3.4588592    2.1658782    -1.292981    1.4555633   0.75927114 
        4.82   -3.4632818    2.1955075   -1.2677743    1.4754755   0.75913147 
        4.83   -3.4483758    2.2065679   -1.2418079    1.4829085   0.80678782 
        4.84   -3.4068165    2.1931962   -1.2136203    1.4739222   0.91558467 
        4.85   -3.3527807    2.1674162   -1.1853645    1.4565969    1.0521151 
        4.86    -3.304977    2.1487619   -1.1562152    1.4440604    1.1698162 
        4.87   -3.2847493    2.1569284   -1.1278209    1.4495486    1.2188923 
        4.88   -3.2977769    2.1971152   -1.1006617    1.4765559    1.1855858 
        4.89   -3.3215092    2.2464354   -1.0750738    1.5097012     1.122174 
         4.9   -3.3177129     2.269084   -1.0486289    1.5249221    1.1136711 
        4.91   -3.2791957    2.2587732   -1.0204225    1.5179928    1.1771905 
        4.92   -3.2536651    2.2558604  -0.99780474    1.5160352     1.211555 
        4.93   -3.2639541    2.2858363  -0.97811786    1.5361803    1.1625497 
        4.94      -3.2956    2.3366304  -0.95896961    1.5703161    1.0637942 
        4.95   -3.3412569    2.3966968  -0.94456008    1.6106834   0.93379232 
        4.96   -3.3831948    2.4492789  -0.93391596    1.6460208   0.81326437 
        4.97   -3.4073064     2.481805  -0.92550142    1.6678797   0.73330235 
        4.98   -3.4155919    2.4921916  -0.92340036    1.6748599   0.69454818 
        4.99   -3.4050041    2.4781378  -0.92686623    1.6654152   0.70406854 
           5   -3.3760311    2.4385243  -0.93750678    1.6387932   0.76116136 
        5.01   -3.3278432    2.3777654  -0.95007776    1.5979606   0.86052285 
        5.02   -3.2868213    2.3230387   -0.9637826    1.5611819    0.9417065 
        5.03   -3.2879057    2.3054752   -0.9824305    1.5493785   0.92659915 
        5.04   -3.3188404    2.3174855   -1.0013548    1.5574499    0.8410829 
        5.05    -3.362329    2.3404263   -1.0219026    1.5728672   0.72437516 
        5.06   -3.4000097    2.3556129   -1.0443968    1.5830732   0.61967515 
        5.07    -3.418906    2.3492516   -1.0696544    1.5787981   0.55905576 
        5.08   -3.4182758    2.3223832   -1.0958927    1.5607414   0.54370542 
        5.09   -3.4090522    2.2848011   -1.1242511    1.5354846   0.55212669 
         5.1   -3.3969375    2.2443774   -1.1525601    1.5083181   0.57030108 
        5.11   -3.3832312    2.2026682    -1.180563    1.4802878   0.59588271 
        5.12   -3.3640456    2.1575471   -1.2064985    1.4499644   0.63560408 
        5.13   -3.3374041    2.1082373   -1.2291669    1.4168261   0.69238247 
        5.14   -3.3114958    2.0629419   -1.2485538    1.3863857   0.74779725 
        5.15   -3.3022996    2.0384745   -1.2638251    1.3699425   0.76368169 
        5.16   -3.3167099    2.0400914   -1.2766186    1.3710291   0.72500225 
        5.17   -3.3396727    2.0533367   -1.2863359    1.3799306   0.66522252 
        5.18    -3.353936    2.0633176   -1.2906184    1.3866382   0.62028202 
        5.19   -3.3558117    2.0652291   -1.2905827    1.3879228   0.60056383 
         5.2   -3.3508567     2.062192   -1.2886647    1.3858817   0.59803488 
        5.21    -3.344573    2.0624712   -1.2821018    1.3860693   0.60012125 
        5.22   -3.3513758    2.0762813   -1.2750944    1.3953504   0.58115965 
        5.23   -3.3648286     2.098274   -1.2665546    1.4101304   0.55573665 
        5.24   -3.3648149    2.1103561   -1.2544587    1.4182501   0.56854047 
        5.25   -3.3484876    2.1085576   -1.2399301    1.4170414   0.62651518 
        5.26   -3.3276898    2.1039209   -1.2237689    1.4139253   0.70274809 
        5.27   -3.3120732    2.1038977   -1.2081755    1.4139097   0.77471876 
        5.28   -3.2907658     2.099787   -1.1909787    1.4111472   0.86208835 
        5.29   -3.2613018    2.0879076   -1.1733942    1.4031637   0.96925917 
         5.3   -3.2406332     2.084225   -1.1564081    1.4006889    1.0564728 
        5.31   -3.2524782    2.1123105   -1.1401678    1.4195635    1.0716134 
        5.32   -3.3032252    2.1725057   -1.1307195    1.4600173    1.0024605 
        5.33   -3.3344446    2.2142873   -1.1201573    1.4880963   0.97670696 
        5.34   -3.3179199    2.2118253   -1.1060946    1.4864418    1.0567208 
        5.35   -3.2897862    2.1940112    -1.095775    1.4744699    1.1655482 
        5.36   -3.2670147    2.1823314   -1.0846833    1.4666205     1.258164 
        5.37   -3.2552048    2.1825802   -1.0726246    1.4667878    1.3195057 
        5.38   -3.2697951    2.2056441    -1.064151    1.4822877    1.3158795 
        5.39   -3.3070322     2.251219   -1.0558132     1.512916    1.2526514 
         5.4    -3.348541    2.2998683   -1.0486727    1.5456104    1.1752743 
        5.41    -3.367998    2.3258091   -1.0421889    1.5630438    1.1457268 
        5.42   -3.3600169    2.3249926   -1.0350244     1.562495    1.1786451 
        5.43   -3.3561802    2.3238277   -1.0323525    1.5617122    1.2039808 
        5.44    -3.359862     2.328459    -1.031403    1.5648246    1.2124672 
        5.45    -3.360228    2.3260298   -1.0341981    1.5631921    1.2321574 
        5.46   -3.3446889    2.3060053   -1.0386836    1.5497347    1.2875431 
        5.47   -3.2958247    2.2518063   -1.0440184    1.5133107    1.4163162 
        5.48   -3.2124268    2.1652824   -1.0471444    1.4551629       1.6166 
        5.49   -3.1484438    2.1028582   -1.0455856    1.4132112    1.7578448 
         5.5   -3.1903565    2.1407862   -1.0495703    1.4387004    1.6440549 
        5.51   -3.3257538    2.2668202   -1.0589336    1.5234007    1.3025919 
        5.52   -3.4583176    2.3932319   -1.0650857    1.6083548   0.95407093 
        5.53   -3.5392581    2.4678766   -1.0713815    1.6585192   0.71864822 
        5.54   -3.5698104    2.4872845   -1.0825259    1.6715621   0.60410733 
        5.55   -3.5679179    2.4663002   -1.1016177    1.6574598   0.57669041 
        5.56   -3.5487271    2.4220828   -1.1266443    1.6277438   0.60144534 
        5.57   -3.5259746    2.3704711   -1.1555035    1.5930585    0.6450054 
        5.58   -3.5101295    2.3178679   -1.1922616     1.557707   0.68767205 
        5.59   -3.4842542    2.2544109   -1.2298433    1.5150611   0.76068895 
         5.6   -3.4371928    2.1720504   -1.2651424    1.4597113   0.88720044 
        5.61   -3.3859226    2.0903517   -1.2955709    1.4048063    1.0245492 
        5.62   -3.3678528    2.0437701   -1.3240826    1.3735014    1.0867426 
        5.63   -3.3902906    2.0393361   -1.3509545    1.3705216    1.0566912 
        5.64   -3.4275215    2.0531954   -1.3743261    1.3798356    0.9937774 
        5.65   -3.4527108    2.0615714   -1.3911395    1.3854646   0.95790299 
        5.66   -3.4605004     2.056692   -1.4038083    1.3821855   0.96504863 
        5.67   -3.4589336     2.046913   -1.4120205    1.3756136    0.9954328 
        5.68   -3.4661113    2.0480155   -1.4180958    1.3763545    1.0079262 
        5.69   -3.4918066    2.0682447   -1.4235619    1.3899494    0.9796026 
         5.7    -3.521874    2.0968358   -1.4250382    1.4091639   0.93879468 
        5.71   -3.5339327    2.1118614   -1.4220713    1.4192617   0.93840208 
        5.72     -3.51807    2.1004253   -1.4176447    1.4115762    1.0058304 
        5.73   -3.4746759    2.0661044   -1.4085715     1.388511    1.1372131 
        5.74   -3.4252236    2.0305417   -1.3946819    1.3646113    1.2829393 
        5.75   -3.4018981    2.0224254   -1.3794728    1.3591568    1.3697152 
        5.76   -3.4079109    2.0449179    -1.362993    1.3742728    1.3898769 
        5.77   -3.4175104    2.0820232   -1.3354872    1.3992091    1.3933472 
        5.78   -3.4342311    2.1299542   -1.3042769    1.4314209     1.378255 
        5.79   -3.4563513    2.1887525   -1.2675987    1.4709358    1.3446388 
         5.8   -3.4765848    2.2504145   -1.2261703    1.5123753    1.3093107 
        5.81   -3.4883555    2.3093346   -1.1790209    1.5519722    1.2847113 
        5.82   -3.4960289    2.3641231   -1.1319057    1.5887924    1.2640867 
        5.83   -3.4886854    2.4052822   -1.0834033    1.6164531    1.2703163 
        5.84   -3.4746688    2.4379998   -1.0366691    1.6384407    1.2892781 
        5.85    -3.485814    2.4859317  -0.99988236     1.670653    1.2494349 
        5.86   -3.4959577    2.5264453  -0.96951235    1.6978799    1.2119267 
        5.87   -3.4694248    2.5242502   -0.9451746    1.6964047    1.2591978 
        5.88   -3.4025912     2.472888  -0.92970321    1.6618871    1.3976031 
        5.89   -3.3041489    2.3866191  -0.91752978    1.6039107    1.6021899 
         5.9   -3.2451129    2.3356014  -0.90951146    1.5696246    1.7083052 
        5.91   -3.2804196     2.363653  -0.91676661    1.5884765    1.5906295 
        5.92   -3.3328039    2.4140594  -0.91874452    1.6223517    1.4241861 
        5.93    -3.397479    2.4695353  -0.92794374    1.6596339    1.2245874 
        5.94   -3.4458182    2.5058189   -0.9399993    1.6840181    1.0613357 
        5.95     -3.45418    2.4994233  -0.95475671      1.67972    0.9915188 
        5.96   -3.4436345    2.4699165  -0.97371808    1.6598901   0.96736182 
        5.97   -3.4355634    2.4411652  -0.99439816     1.640568   0.93728611 
        5.98    -3.435172     2.416734   -1.0184381    1.6241492   0.89077316 
        5.99   -3.4231481    2.3810803   -1.0420678    1.6001884   0.86884643 
           6   -3.3930038    2.3339032   -1.0591007    1.5684833   0.88364821 
        6.01   -3.3873148    2.3098099    -1.077505    1.5522916   0.84464834 
        6.02   -3.4113241     2.317747   -1.0935771    1.5576257   0.73776122 
        6.03   -3.4475782     2.340069   -1.1075093     1.572627   0.60612336 
        6.04   -3.4930419    2.3703245   -1.1227174      1.59296   0.45871382 
        6.05   -3.5297557    2.3916982   -1.1380576     1.607324   0.33755719 
        6.06   -3.5357267     2.380676   -1.1550507    1.5999167   0.29604071 
        6.07   -3.5048722    2.3380457   -1.1668265    1.5712673   0.34471671 
        6.08   -3.4877364    2.3062489   -1.1814876    1.5498984   0.37702102 
        6.09   -3.5021756    2.3032642   -1.1989114    1.5478926   0.35271292 
         6.1   -3.5237641     2.308413   -1.2153511    1.5513528   0.32359435 
        6.11   -3.5408234     2.309236   -1.2315874    1.5519059   0.31358727 
        6.12   -3.5444478    2.2949059   -1.2495419    1.5422755   0.34475568 
        6.13   -3.5186893    2.2508065   -1.2678828    1.5126387   0.45111489 
        6.14   -3.4545087    2.1737861   -1.2807226    1.4608777   0.64760042 
        6.15   -3.3902116    2.0995372   -1.2906744    1.4109793   0.84890929 
        6.16   -3.3669309    2.0664521   -1.3004788    1.3887447   0.95899394 
        6.17   -3.3797264     2.071478   -1.3082484    1.3921223   0.98721581 
        6.18   -3.4069696    2.0928566   -1.3141129    1.4064897   0.97922588 
        6.19   -3.4159116    2.0989027   -1.3170089    1.4105529    1.0093332 
         6.2   -3.3894243    2.0756417   -1.3137826    1.3949205    1.1153983 
        6.21   -3.3704095     2.065043   -1.3053665    1.3877977     1.203654 
        6.22   -3.4022792    2.0999828   -1.3022964    1.4112788    1.1768001 
        6.23   -3.4163321    2.1230197   -1.2933124    1.4267606    1.1873649 
        6.24   -3.3770154    2.0977433   -1.2792721    1.4097737    1.3095149 
        6.25   -3.3047034    2.0476324    -1.257071     1.376097    1.4931393 
        6.26   -3.2781959    2.0450065   -1.2331893    1.3743323    1.5639506 
        6.27   -3.3369031    2.1222342   -1.2146689    1.4262327    1.4348267 
        6.28   -3.4053698    2.2176249   -1.1877449    1.4903393    1.2738712 
        6.29   -3.4450017    2.2909671   -1.1540346    1.5396284    1.1699403 
         6.3   -3.4700693    2.3506683    -1.119401    1.5797502    1.0970157 
        6.31   -3.4933615    2.4064577   -1.0869038    1.6172431    1.0299678 
        6.32   -3.5029405     2.447907   -1.0550335    1.6450988   0.99484772 
        6.33   -3.4861569    2.4590685   -1.0270884    1.6525998    1.0224584 
        6.34   -3.4371105    2.4345666   -1.0025439    1.6361334    1.1222962 
        6.35   -3.3711218    2.3915382  -0.97958361    1.6072165    1.2569225 
        6.36   -3.3384691    2.3767296  -0.96173953    1.5972645    1.3142422 
        6.37   -3.3683755    2.4173826  -0.95099282    1.6245851    1.2334516 
        6.38   -3.4253096    2.4811473  -0.94416235    1.6674377    1.0946159 
        6.39   -3.4411197    2.5028438  -0.93827596    1.6820187    1.0544181 
         6.4   -3.3975383    2.4640424  -0.93349595    1.6559425    1.1564397 
        6.41   -3.3438728    2.4076824  -0.93619038    1.6180661    1.2909931 
        6.42   -3.3001166    2.3521715   -0.9479451    1.5807604    1.4124448 
        6.43   -3.2392316    2.2781633   -0.9610683    1.5310237    1.5694781 
        6.44   -3.1680308    2.1937887  -0.97424208    1.4743204    1.7382401 
        6.45   -3.1458149    2.1526502  -0.99316465    1.4466735    1.7794437 
        6.46   -3.2007049    2.1818769   -1.0188281    1.4663151    1.6234753 
        6.47   -3.2918171    2.2426433   -1.0491738    1.5071528    1.3669907 
        6.48   -3.3715232    2.2898163   -1.0817069     1.538855     1.120854 
        6.49   -3.4223839    2.3000357   -1.1223482    1.5457229   0.93787815 
         6.5   -3.4297765     2.261509   -1.1682675    1.5198313   0.85490499 
        6.51   -3.3946948    2.1780063   -1.2166885    1.4637139   0.87237613 
        6.52   -3.3431703    2.0779613    -1.265209    1.3964794   0.93207341 
        6.53   -3.3099645    1.9972587   -1.3127058    1.3422438   0.95453639 
        6.54   -3.3067535    1.9521615    -1.354592    1.3119365   0.90988602 
        6.55   -3.3345476    1.9457127   -1.3888349    1.3076026   0.79443718 
        6.56   -3.3872197    1.9690611   -1.4181586    1.3232937   0.62575635 
        6.57   -3.4369966     1.995118   -1.4418786    1.3408051   0.46979103 
        6.58   -3.4625162     2.003447   -1.4590691    1.3464026   0.37549139 
        6.59   -3.4649913     1.994375   -1.4706163    1.3403058   0.34173518 
         6.6   -3.4555077    1.9785649   -1.4769428    1.3296807   0.34343106 
        6.61   -3.4414349    1.9622999    -1.479135    1.3187499   0.36410606 
        6.62   -3.4221442    1.9461895   -1.4759547     1.307923    0.4026304 
        6.63   -3.4011606    1.9333261   -1.4678345    1.2992783   0.45037835 
        6.64   -3.3839648    1.9290726   -1.4548922    1.2964198   0.49396126 
        6.65   -3.3718258    1.9352322   -1.4365936    1.3005593    0.5294451 
        6.66    -3.366271    1.9533703   -1.4129006    1.3127489   0.55279824 
        6.67   -3.3734521    1.9887921   -1.3846601    1.3365538   0.55048392 
        6.68   -3.3949187    2.0433877    -1.351531    1.3732444   0.51825048 
        6.69   -3.4219361    2.1088869   -1.3130492    1.4172627   0.47598778 
         6.7   -3.4475376    2.1754797   -1.2720578    1.4620159   0.44446682 
        6.71   -3.4722373    2.2397688   -1.2324685     1.505221   0.42710586 
        6.72   -3.4864329    2.2900905   -1.1963425    1.5390393   0.44690276 
        6.73   -3.4668632    2.3041092    -1.162754    1.5484605   0.55356628 
        6.74   -3.4071701    2.2745222   -1.1326479    1.5285767   0.75939334 
        6.75   -3.3313555    2.2249459   -1.1064096    1.4952593    1.0077998 
        6.76   -3.2751283    2.1920747   -1.0830536    1.4731685    1.2118173 
        6.77   -3.2492421    2.1847695   -1.0644725    1.4682591    1.3451289 
        6.78   -3.2315122       2.1857   -1.0458122    1.4688844    1.4488604 
        6.79   -3.2122084    2.1846094    -1.027599    1.4681515    1.5428747 
         6.8   -3.1983235    2.1888022   -1.0095213    1.4709692    1.6121401 
        6.81   -3.2043873    2.2098089  -0.99457836    1.4850866    1.6282154 
        6.82   -3.2172936    2.2317085  -0.98558512    1.4998041     1.626282 
        6.83   -3.1929212    2.2184781  -0.97444309    1.4909127    1.6984105 
        6.84   -3.1270762    2.1660364  -0.96103984    1.4556696    1.8530785 
        6.85   -3.0789387    2.1331151  -0.94582365    1.4335451    1.9524784 
        6.86    -3.115334     2.175967  -0.93936702    1.4623434    1.8482827 
        6.87   -3.1982027    2.2658841  -0.93231862    1.5227716    1.6212728 
        6.88    -3.275285    2.3501394  -0.92514559    1.5793948    1.3943129 
        6.89   -3.3271405    2.4078548  -0.91928569     1.618182    1.2165359 
         6.9   -3.3529178    2.4362931  -0.91662468    1.6372937    1.0978336 
        6.91   -3.3597979    2.4421481  -0.91764973    1.6412286    1.0262628 
        6.92   -3.3634369    2.4380603  -0.92537656    1.6384814   0.97106373 
        6.93   -3.3674402    2.4313446  -0.93609563    1.6339681   0.92038089 
        6.94   -3.3712008    2.4205336  -0.95066717    1.6267027   0.87637538 
        6.95   -3.3706859    2.3995119  -0.97117401    1.6125752    0.8498586 
        6.96   -3.3598624    2.3653198   -0.9945426    1.5895966   0.85155875 
        6.97   -3.3443296     2.325261   -1.0190686    1.5626754   0.86661579 
        6.98   -3.3304041    2.2835459   -1.0468582    1.5346411   0.88257614 
        6.99   -3.3058743    2.2303897   -1.0754846    1.4989178   0.92373282 
           7   -3.2607777    2.1600044   -1.1007733    1.4516159    1.0074443 
        7.01   -3.2199712    2.0964474   -1.1235238    1.4089028    1.0772303 
        7.02    -3.216195     2.069484   -1.1467109    1.3907823    1.0581672 
        7.03   -3.2375287    2.0721517    -1.165377     1.392575   0.97419706 
        7.04   -3.2653154    2.0855958   -1.1797196    1.4016101   0.86866418 
        7.05   -3.2887837    2.0954351   -1.1933486    1.4082225   0.77182886 
        7.06   -3.2928036    2.0906398   -1.2021638    1.4049999   0.71598962 
        7.07   -3.2844658    2.0763742   -1.2080916    1.3954128   0.68998684 
        7.08    -3.285872    2.0734152   -1.2124568    1.3934242   0.64654994 
        7.09   -3.3032852    2.0884942    -1.214791    1.4035579    0.5723743 
         7.1   -3.3179831    2.1033426   -1.2146405    1.4135367   0.51119143 
        7.11    -3.309534    2.1001515   -1.2093825    1.4113921   0.50750374 
        7.12   -3.2890861    2.0899906   -1.1990955    1.4045636   0.54041441 
        7.13   -3.2897427    2.1031298   -1.1866129    1.4133937   0.53895798 
        7.14   -3.3086515    2.1397288   -1.1689227    1.4379898   0.51083532 
        7.15   -3.3231362    2.1798637   -1.1432725    1.4649621   0.50481231 
        7.16    -3.313342    2.2061594   -1.1071827     1.482634   0.56367455 
        7.17   -3.2771162    2.2191858   -1.0579304    1.4913883   0.69186157 
        7.18   -3.2444934    2.2456096  -0.99888387    1.5091462   0.82155401 
        7.19   -3.2268856    2.2925084  -0.93437715    1.5406643   0.92542033 
         7.2   -3.2077663    2.3445093  -0.86325695    1.5756111    1.0299801 
        7.21   -3.1991034    2.4044044    -0.794699    1.6158632    1.1062957 
        7.22   -3.2118885    2.4788988   -0.7329897    1.6659266    1.1263978 
        7.23   -3.2383693    2.5592247  -0.67914454    1.7199091    1.1061471 
        7.24   -3.2717507    2.6305071  -0.64124354    1.7678139    1.0686659 
        7.25   -3.2947301    2.6814946  -0.61323544    1.8020797    1.0478794 
        7.26   -3.3129412    2.7144299   -0.5985113    1.8242136    1.0367829 
        7.27   -3.3289377    2.7314343  -0.59750345    1.8356413    1.0310449 
        7.28    -3.325138    2.7163473  -0.60879065    1.8255022     1.070862 
        7.29    -3.290219    2.6640295  -0.62618955    1.7903424    1.1797421 
         7.3   -3.2688972    2.6148201  -0.65407702    1.7572716      1.26004 
        7.31   -3.2767324    2.5824464  -0.69428599    1.7355151    1.2767361 
        7.32   -3.2675077    2.5319212  -0.73558649    1.7015599    1.3272818 
        7.33   -3.2377947     2.460911  -0.77688369    1.6538381    1.4162523 
        7.34    -3.212499    2.3925346  -0.81996434    1.6078862    1.4893588 
        7.35   -3.2055259    2.3425096  -0.86301629    1.5742672    1.5134079 
        7.36   -3.2183784    2.3138436  -0.90453479    1.5550024    1.4825177 
        7.37   -3.2437484    2.2993996  -0.94434882    1.5452954    1.4139532 
        7.38   -3.2724759    2.2948577  -0.97761829     1.542243    1.3260727 
        7.39     -3.31001    2.2997011   -1.0103089    1.5454981    1.2139288 
         7.4   -3.3335858    2.2943789   -1.0392069    1.5419213    1.1307152 
        7.41   -3.3293316    2.2625274   -1.0668042    1.5205157     1.114176 
        7.42   -3.3014735    2.2095737   -1.0918998    1.4849286    1.1529094 
        7.43   -3.2603974    2.1481544    -1.112243    1.4436522    1.2204701 
        7.44   -3.2275494    2.0991882   -1.1283612    1.4107448    1.2661514 
        7.45   -3.2254477    2.0823815   -1.1430663    1.3994499    1.2388353 
        7.46   -3.2564255    2.1005127   -1.1559128    1.4116348    1.1338048 
        7.47   -3.3114157    2.1449546   -1.1664611    1.4415018   0.97197175 
        7.48   -3.3698195    2.1952864   -1.1745331    1.4753269   0.80306243 
        7.49   -3.4101934    2.2301258   -1.1800676    1.4987405    0.6791151 
         7.5   -3.4278516    2.2421711   -1.1856806    1.5068354    0.6153874 
        7.51   -3.4262604    2.2350385   -1.1912219     1.502042   0.60461227 
        7.52   -3.4143544       2.2177   -1.1966543    1.4903898   0.62670911 
        7.53   -3.4021285     2.201827   -1.2003014    1.4797225   0.65633398 
        7.54   -3.3979359    2.1936727   -1.2042633    1.4742424   0.67680076 
        7.55   -3.3974327     2.191416   -1.2060167    1.4727258   0.69572018 
        7.56   -3.3979849    2.1892053   -1.2087796    1.4712401    0.7224038 
        7.57   -3.3875692    2.1764453   -1.2111239    1.4626649   0.78111768 
        7.58   -3.3558067    2.1442675   -1.2115392      1.44104   0.89105434 
        7.59   -3.3086498    2.0991115   -1.2095383    1.4106932    1.0354728 
         7.6   -3.2726827    2.0681276    -1.204555    1.3898707    1.1520551 
        7.61   -3.2764322    2.0775438   -1.1988884    1.3961988    1.1769613 
        7.62   -3.3033159    2.1119945   -1.1913214    1.4193511    1.1455153 
        7.63   -3.3085669    2.1321958   -1.1763711    1.4329273    1.1543776 
        7.64   -3.2898313    2.1351046   -1.1547268    1.4348821    1.2071403 
        7.65   -3.2737121    2.1399628   -1.1337493    1.4381471    1.2509328 
        7.66   -3.2588083     2.153526   -1.1052823    1.4472621    1.2816644 
        7.67   -3.2530889    2.1842405   -1.0688484    1.4679036    1.2823123 
        7.68   -3.2728229    2.2446393   -1.0281837    1.5084941     1.220652 
        7.69   -3.3113146    2.3270047  -0.98430987    1.5638473    1.1148608 
         7.7    -3.347695    2.4109785   -0.9367165    1.6202812     1.011396 
        7.71   -3.3757234    2.4854549  -0.89026847    1.6703326   0.92739877 
        7.72   -3.3972937    2.5482203  -0.84907339    1.7125137   0.86039907 
        7.73   -3.4095751     2.596988  -0.81258702    1.7452877   0.81431428 
        7.74   -3.4166457    2.6312642  -0.78538141    1.7683227   0.78505843 
        7.75   -3.4214873    2.6545068  -0.76698052    1.7839427   0.76462337 
        7.76   -3.4215972    2.6611271  -0.76047016    1.7883918   0.76244758 
        7.77   -3.4024455    2.6389468  -0.76349879    1.7734857   0.80860292 
        7.78   -3.3627395    2.5873346  -0.77540495    1.7388001   0.90432152 
        7.79   -3.3163518    2.5222026  -0.79414916    1.6950286    1.0155294 
         7.8   -3.2853941     2.464431  -0.82096311    1.6562036    1.0922159 
        7.81   -3.2732963    2.4187666  -0.85452963    1.6255152    1.1231669 
        7.82   -3.2634308    2.3735652  -0.88986559    1.5951379    1.1395132 
        7.83   -3.2490412    2.3215004  -0.92754072    1.5601481    1.1571249 
        7.84    -3.227281    2.2625037  -0.96477735    1.5204998    1.1811996 
        7.85   -3.1987081    2.1987324  -0.99997571    1.4776427    1.2118992 
        7.86   -3.1709212    2.1392085   -1.0317128    1.4376401    1.2335031 
        7.87   -3.1573105    2.0980394   -1.0592712    1.4099727    1.2170402 
        7.88   -3.1649324    2.0818142   -1.0831183    1.3990687     1.150279 
        7.89   -3.1912927    2.0890501   -1.1022425    1.4039315    1.0398666 
         7.9   -3.2255171    2.1077694   -1.1177477    1.4165117   0.91229864 
        7.91   -3.2450828     2.115604   -1.1294788    1.4217769   0.82041039 
        7.92   -3.2388209    2.1039545   -1.1348664    1.4139479   0.78784431 
        7.93   -3.2197488    2.0823556   -1.1373932    1.3994325   0.79006202 
        7.94   -3.2002174    2.0628798   -1.1373375     1.386344   0.80182441 
        7.95   -3.1901437    2.0557099   -1.1344338    1.3815254   0.79891108 
        7.96   -3.1817261    2.0489451    -1.132781    1.3769792   0.80061665 
        7.97   -3.1453139     2.021245   -1.1240689    1.3583636   0.86206654 
        7.98   -3.1067418    1.9960665   -1.1106754    1.3414425   0.92884819 
        7.99   -3.1163445    2.0149696   -1.1013749    1.3541462   0.89354927 
           8   -3.1454627    2.0541664   -1.0912963    1.3804882   0.81821385 
        8.01   -3.1557201    2.0814002   -1.0743199    1.3987905   0.77996278 
        8.02   -3.1615871    2.1044575   -1.0571295     1.414286   0.75412719 
        8.03   -3.1735034    2.1329735   -1.0405299    1.4334499    0.7213058 
        8.04   -3.1867479    2.1629951   -1.0237528    1.4536258   0.69306547 
        8.05   -3.1950489     2.186881    -1.008168    1.4696781   0.68342898 
        8.06   -3.1900647    2.1971958  -0.99286893    1.4766101   0.70801537 
        8.07   -3.1768183    2.2003066   -0.9765117    1.4787007   0.75195908 
        8.08   -3.1752371    2.2120503  -0.96318683     1.486593   0.77216039 
        8.09    -3.176186    2.2241777  -0.95200832    1.4947431   0.78636055 
         8.1   -3.1519734    2.2155089  -0.93646446    1.4889173   0.84950621 
        8.11   -3.1179707    2.1959106  -0.92206014    1.4757464   0.93299917 
        8.12   -3.0944244    2.1872245  -0.90719991    1.4699089   0.98984094 
        8.13   -3.0879561    2.1947773  -0.89317879    1.4749848    1.0096934 
        8.14   -3.1042515    2.2256585  -0.87859307    1.4957382   0.97751582 
        8.15   -3.1460378    2.2809438    -0.865094    1.5328924   0.88807662 
        8.16   -3.1949548    2.3438539  -0.85110088    1.5751707   0.78060986 
        8.17   -3.2364749    2.3976881  -0.83878676    1.6113496   0.69021409 
        8.18   -3.2673792    2.4365384  -0.83084081    1.6374586   0.62821911 
        8.19   -3.2837068    2.4567841  -0.82692271    1.6510646   0.60395842 
         8.2   -3.2791527    2.4509627  -0.82819002    1.6471523    0.6330189 
        8.21   -3.2498672    2.4163984  -0.83346879    1.6239237   0.72198363 
        8.22   -3.2056864    2.3647896  -0.84089675    1.5892403   0.84656277 
        8.23   -3.1751521    2.3246518  -0.85050034     1.562266   0.94377007 
        8.24   -3.1839153    2.3181711  -0.86574415    1.5579107   0.95696726 
        8.25   -3.2111609    2.3284796  -0.88268127    1.5648384   0.92753573 
        8.26   -3.2364319    2.3307691  -0.90566281    1.5663771   0.90321033 
        8.27    -3.244046    2.3122454  -0.93180065    1.5539283   0.91360755 
        8.28     -3.22276    2.2608153  -0.96194467    1.5193651   0.98422438 
        8.29    -3.169866    2.1772885  -0.99257749    1.4632315    1.1172406 
         8.3   -3.1257178    2.1048072   -1.0209106     1.414521    1.2226677 
        8.31   -3.1540083    2.0972433   -1.0567649    1.4094377    1.1634707 
        8.32   -3.2257417     2.130939   -1.0948027    1.4320827    1.0019011 
        8.33   -3.2871278    2.1554877   -1.1316401    1.4485804   0.85308667 
        8.34   -3.3193292    2.1494826   -1.1698466    1.4445447   0.76514521 
        8.35   -3.3237133    2.1184692   -1.2052441    1.4237024   0.73665075 
        8.36   -3.3286139    2.0890787   -1.2395352    1.4039507    0.7110365 
        8.37   -3.3536769    2.0805234   -1.2731535    1.3982012   0.64673503 
        8.38   -3.3822904    2.0773954   -1.3048951     1.396099    0.5820116 
        8.39   -3.3821928    2.0511891   -1.3310037    1.3784873   0.58764469 
         8.4   -3.3493206    1.9980806     -1.35124    1.3427961   0.67456528 
        8.41   -3.3073451    1.9432956   -1.3640495    1.3059782   0.78896655 
        8.42   -3.2892661    1.9160317   -1.3732344    1.2876557   0.85942832 
        8.43   -3.2998719    1.9230404   -1.3768315    1.2923659   0.87186457 
        8.44    -3.329591    1.9545133   -1.3750777     1.313517   0.84636398 
        8.45    -3.365993    1.9981206   -1.3678724     1.342823   0.80914472 
        8.46   -3.3998653    2.0437809   -1.3560843    1.3735087   0.78107014 
        8.47     -3.42568    2.0842247   -1.3414554    1.4006886   0.77530103 
        8.48   -3.4358343     2.111207   -1.3246273    1.4188219   0.80821426 
        8.49   -3.4228618    2.1193349   -1.3035269    1.4242842   0.89261527 
         8.5   -3.3995735    2.1198491   -1.2797245    1.4246298   0.99877526 
        8.51   -3.3943577    2.1402772   -1.2540805    1.4383583    1.0589028 
        8.52   -3.4245121    2.1946965   -1.2298156    1.4749305    1.0340383 
        8.53   -3.4739382    2.2659189   -1.2080192     1.522795   0.96304473 
        8.54    -3.517696      2.32922    -1.188476     1.565336   0.90454037 
        8.55   -3.5394601    2.3677665   -1.1716936    1.5912409    0.8971267 
        8.56   -3.5270162    2.3692972    -1.157719    1.5922696   0.97256847 
        8.57   -3.4885231    2.3424965   -1.1460265    1.5742584    1.1136821 
        8.58   -3.4533691     2.317257   -1.1361121    1.5572964     1.251247 
        8.59   -3.4457645    2.3149233   -1.1308412     1.555728    1.3298598 
         8.6   -3.4610886    2.3328585   -1.1282301    1.5677812     1.355706 
        8.61   -3.4838078    2.3587667   -1.1250411    1.5851927    1.3587563 
        8.62   -3.5059732    2.3801397   -1.1258334    1.5995563     1.362168 
        8.63   -3.5126432    2.3874746   -1.1251687    1.6044856    1.3948323 
        8.64   -3.5080183    2.3809006   -1.1271177    1.6000676    1.4506348 
        8.65   -3.4990596     2.367082   -1.1319776    1.5907809    1.5115072 
        8.66   -3.4883252    2.3515284   -1.1367968    1.5803282    1.5677937 
        8.67   -3.4851305    2.3413298   -1.1438007    1.5734743    1.6010369 
        8.68    -3.491378    2.3364388   -1.1549392    1.5701874       1.6085 
        8.69   -3.4850881    2.3192024   -1.1658856    1.5586038    1.6400297 
         8.7   -3.4633316    2.2873196    -1.176012    1.5371771    1.7017912 
        8.71   -3.4564528    2.2683521   -1.1881007    1.5244302    1.7204013 
        8.72   -3.4840221    2.2791121     -1.20491    1.5316614    1.6485483 
        8.73   -3.5240589    2.3018032   -1.2222556    1.5469108    1.5346387 
        8.74   -3.5551166    2.3153486    -1.239768    1.5560138    1.4309731 
        8.75   -3.5762976    2.3180314   -1.2582661    1.5578168    1.3417157 
        8.76   -3.5964364    2.3161803   -1.2802561    1.5565728    1.2519426 
        8.77   -3.6228706    2.3176086    -1.305262    1.5575326    1.1473393 
        8.78   -3.6576991    2.3254903   -1.3322089    1.5628295    1.0239087 
        8.79   -3.6895261    2.3285474   -1.3609787     1.564884   0.91200103 
         8.8   -3.7008842    2.3099301   -1.3909541    1.5523724   0.85401776 
        8.81   -3.6820387      2.26184   -1.4201987    1.5200538   0.87247106 
        8.82   -3.6478806    2.2013843   -1.4464963     1.479425   0.93089688 
        8.83    -3.635297    2.1618208   -1.4734762    1.4528366   0.94151948 
        8.84   -3.6436003    2.1438553    -1.499745     1.440763   0.90413772 
        8.85   -3.6462328    2.1255803   -1.5206525    1.4284814   0.87958524 
        8.86   -3.6479432     2.109731   -1.5382122      1.41783   0.85752988 
        8.87   -3.6659614    2.1104728   -1.5554886    1.4183285   0.79986782 
        8.88   -3.6958762    2.1267498   -1.5691264    1.4292673   0.71517031 
        8.89   -3.7294463    2.1478808   -1.5815655    1.4434683   0.62880835 
         8.9   -3.7599483    2.1688526   -1.5910957    1.4575622    0.5567245 
        8.91   -3.7889502    2.1890953   -1.5998549    1.4711662   0.49957983 
        8.92   -3.8136756    2.2038361   -1.6098396    1.4810726   0.46868391 
        8.93   -3.8221658    2.2051512   -1.6170146    1.4819564   0.49029583 
        8.94   -3.8142916    2.1894584   -1.6248333    1.4714102   0.56964338 
        8.95   -3.7894826    2.1581807   -1.6313019    1.4503902   0.70459134 
        8.96    -3.754083     2.118981    -1.635102    1.4240463   0.87527199 
        8.97   -3.7256778    2.0879429    -1.637735    1.4031874    1.0350998 
        8.98    -3.715749    2.0793106   -1.6364383    1.3973862    1.1473723 
        8.99   -3.7279998    2.0941082   -1.6338916    1.4073308    1.2018201 
           9   -3.7444718    2.1150092   -1.6294626    1.4213771    1.2396227 
        9.01   -3.7371036    2.1182725   -1.6188311    1.4235702    1.3235689 
        9.02   -3.6954388    2.0921428   -1.6032959      1.40601    1.4798514 
        9.03   -3.6331838    2.0533483   -1.5798355    1.3799384    1.6739322 
        9.04   -3.6056419    2.0521382   -1.5535037    1.3791252    1.7728039 
        9.05   -3.6275697    2.1028498   -1.5247198    1.4132055    1.7403019 
        9.06   -3.6482974     2.168403   -1.4798944    1.4572601    1.6928811 
        9.07   -3.6642624    2.2387373   -1.4255251    1.5045278    1.6471999 
        9.08   -3.6954605    2.3280613   -1.3673992    1.5645573    1.5607904 
        9.09   -3.7349654    2.4300071   -1.3049583    1.6330693    1.4497603 
         9.1   -3.7589121    2.5150882   -1.2438239    1.6902474    1.3780402 
        9.11   -3.7510325    2.5632138   -1.1878187    1.7225899    1.3851822 
        9.12   -3.7251766    2.5809935   -1.1441831    1.7345386     1.440798 
        9.13   -3.7028675    2.5920628   -1.1108047    1.7419777    1.4863806 
        9.14   -3.7033738    2.6087641   -1.0946096    1.7532017    1.4806013 
        9.15   -3.6942324     2.605096   -1.0891363    1.7507366    1.4980317 
        9.16   -3.6390945     2.551535   -1.0875595    1.7147412    1.6222394 
        9.17   -3.5562641    2.4639976   -1.0922666    1.6559124    1.8076436 
        9.18   -3.4913938    2.3876293   -1.1037645    1.6045896    1.9395227 
        9.19   -3.4708258    2.3485143   -1.1223115    1.5783026    1.9506274 
         9.2   -3.4683271    2.3258192   -1.1425079    1.5630505    1.9026665 
        9.21    -3.462419    2.2991987   -1.1632203    1.5451604    1.8520604 
        9.22   -3.4709852    2.2853876   -1.1855976    1.5358788    1.7571314 
        9.23   -3.5020014    2.2892696   -1.2127318    1.5384876    1.6048027 
        9.24   -3.5166263    2.2760738   -1.2405525    1.5296195    1.4891918 
        9.25   -3.4824066    2.2197993   -1.2626072    1.4918006    1.4845875 
        9.26   -3.4431835    2.1601472   -1.2830363    1.4517118     1.491662 
        9.27   -3.4632493    2.1558331   -1.3074163    1.4488125    1.3563734 
        9.28   -3.5145525    2.1838228   -1.3307297    1.4676229    1.1500725 
        9.29   -3.5411344    2.1940879   -1.3470464    1.4745215    1.0026546 
         9.3   -3.5377017    2.1740566   -1.3636451    1.4610596   0.93397775 
        9.31   -3.5124698     2.135773   -1.3766968    1.4353313   0.91911312 
        9.32   -3.4861725    2.0965932   -1.3895793    1.4090008   0.91039588 
        9.33   -3.4643372    2.0646821   -1.3996551    1.3875552   0.89117253 
        9.34   -3.4560293    2.0491538   -1.4068756    1.3771195   0.84253738 
        9.35   -3.4769929    2.0648387   -1.4121542    1.3876604    0.7281419 
        9.36   -3.5131881    2.1005611    -1.412627    1.4116674    0.5822276 
        9.37   -3.5401195    2.1322528   -1.4078667    1.4329656   0.46438693 
        9.38    -3.551844    2.1521062   -1.3997377    1.4463079   0.39020958 
        9.39   -3.5493604    2.1632145   -1.3861459    1.4537732   0.35518988 
         9.4   -3.5408504      2.17087   -1.3699803     1.458918   0.34474421 
        9.41   -3.5290564    2.1834835   -1.3455729    1.4673948   0.34807649 
        9.42   -3.5249333    2.2104906   -1.3144427    1.4855447   0.34362731 
        9.43   -3.5241169    2.2493109    -1.274806    1.5116337   0.34216025 
        9.44   -3.5140501    2.2896938   -1.2243563    1.5387727   0.37144707 
        9.45   -3.4972869      2.32998   -1.1673069    1.5658468   0.42848623 
        9.46   -3.4784709    2.3743902   -1.1040806    1.5956924   0.49797814 
        9.47   -3.4610304     2.418982   -1.0420484    1.6256599   0.57396031 
        9.48   -3.4386976     2.453836  -0.98486154    1.6490833   0.66869585 
        9.49   -3.4099578     2.473939   -0.9360188    1.6625934   0.78257759 
         9.5   -3.3706979    2.4767866  -0.89391132    1.6645071    0.9205774 
        9.51   -3.3299546    2.4689565   -0.8609981     1.659245    1.0624815 
        9.52   -3.2949143    2.4548748  -0.84003949    1.6497814    1.1925525 
        9.53   -3.2489062    2.4246311  -0.82427513    1.6294564    1.3392981 
        9.54   -3.1862752    2.3712498  -0.81502543    1.5935818    1.5120812 
        9.55   -3.1107753    2.3010682  -0.80970716    1.5464168    1.6938474 
        9.56   -3.0461258    2.2406457  -0.80548015    1.5058103    1.8246562 
        9.57    -3.042421    2.2389957  -0.80342528    1.5047014    1.7930469 
        9.58   -3.1287681    2.3204777   -0.8082904    1.5594608    1.5409878 
        9.59   -3.2511284     2.436538  -0.81459039    1.6374583    1.1963235 
         9.6   -3.3466578    2.5260509  -0.82060699    1.6976148   0.90625221 
        9.61   -3.3983869    2.5672608  -0.83112603    1.7253097   0.71876649 
        9.62   -3.4112076    2.5622892   -0.8489184    1.7219685   0.63037075 
        9.63   -3.3900866     2.517345   -0.8727416    1.6917641   0.62988384 
        9.64   -3.3428657    2.4395616  -0.90330405    1.6394904   0.70061757 
        9.65   -3.2830638    2.3469851   -0.9360787     1.577275   0.80462498 
        9.66   -3.2376985    2.2674083  -0.97029023    1.5237959   0.87971587 
        9.67   -3.2356138    2.2287213   -1.0068926    1.4977965   0.85979548 
        9.68   -3.2736682    2.2280325   -1.0456357    1.4973336    0.7510082 
        9.69   -3.3151414    2.2364279   -1.0787135    1.5029757   0.62882821 
         9.7   -3.3471788    2.2381316   -1.1090472    1.5041207   0.52705507 
        9.71   -3.3688786    2.2311395   -1.1377391    1.4994217   0.45255529 
        9.72   -3.3801031    2.2157645   -1.1643387     1.489089   0.40875082 
        9.73   -3.3811382    2.1921037   -1.1890345     1.473188   0.39693527 
        9.74   -3.3683322    2.1568488   -1.2114834    1.4494952   0.42473424 
        9.75   -3.3370811    2.1093169   -1.2277642    1.4175517   0.49859867 
        9.76   -3.3117932    2.0716028   -1.2401905    1.3922062   0.56610205 
        9.77   -3.3090435    2.0580421   -1.2510013    1.3830928   0.58821537 
        9.78   -3.2972521    2.0427008   -1.2545513    1.3727828   0.63043984 
        9.79   -3.2675299    2.0138637   -1.2536662     1.353403   0.71207448 
[...]
       47.67   -3.4306104    2.3092667   -1.1213437    1.5519265   0.86309935 
       47.68   -3.4262951    2.2850138   -1.1412813    1.5356275   0.84835576 
       47.69   -3.4284662    2.2631966   -1.1652696    1.5209655   0.82593924 
        47.7   -3.4271015    2.2364917   -1.1906098    1.5030186   0.81506416 
       47.71   -3.4140766    2.1978744   -1.2162022    1.4770662   0.83267745 
       47.72   -3.3949193    2.1535413   -1.2413779    1.4472724   0.86430083 
       47.73   -3.3785842    2.1148614   -1.2637229    1.4212778   0.88613605 
       47.74   -3.3792997    2.0971573   -1.2821424    1.4093799   0.86609142 
       47.75   -3.4177926    2.1154485   -1.3023442    1.4216724   0.75990044 
       47.76   -3.4669075    2.1460876   -1.3208199    1.4422631   0.62781027 
       47.77   -3.4878303    2.1505331   -1.3372972    1.4452507      0.56149 
       47.78   -3.4700073    2.1193638   -1.3506435    1.4243036   0.58567424 
       47.79   -3.4301609    2.0696498   -1.3605111    1.3908937   0.66554638 
        47.8   -3.4022332    2.0350595   -1.3671737    1.3676475    0.7257853 
       47.81   -3.4124405    2.0395932   -1.3728473    1.3706944   0.70823428 
       47.82   -3.4470316    2.0691243   -1.3779074    1.3905405   0.64545814 
       47.83    -3.467958    2.0903011   -1.3776569    1.4047722   0.61996662 
       47.84   -3.4629512    2.0904146   -1.3725365    1.4048485   0.66046518 
       47.85   -3.4498003    2.0863344   -1.3634659    1.4021064   0.72624526 
       47.86    -3.452028    2.0994226   -1.3526053    1.4109023   0.76406198 
       47.87    -3.471526    2.1328429   -1.3386831    1.4333622    0.7672081 
       47.88   -3.4995507    2.1765277    -1.323023    1.4627202   0.75605418 
       47.89   -3.5232966    2.2180491   -1.3052475    1.4906244   0.75850054 
        47.9   -3.5338777     2.249934   -1.2839436    1.5120524   0.79263461 
       47.91   -3.5359899    2.2736734   -1.2623164    1.5280063   0.84880799 
       47.92   -3.5287534    2.2899152   -1.2388382    1.5389215    0.9247478 
       47.93   -3.5086929    2.2962712   -1.2124217     1.543193    1.0259322 
       47.94     -3.48275    2.2971887   -1.1855613    1.5438096    1.1373053 
       47.95   -3.4676632    2.3084237   -1.1592395      1.55136    1.2219987 
       47.96   -3.4837907    2.3477974   -1.1359933    1.5778208    1.2333108 
       47.97   -3.5192825    2.4060772   -1.1132053    1.6169874     1.198403 
       47.98   -3.5488937    2.4587459   -1.0901478     1.652383    1.1750917 
       47.99   -3.5539877    2.4800103   -1.0739775    1.6666736    1.2143198 
          48   -3.5088652    2.4506345   -1.0582307    1.6469318    1.3683351 
       48.01    -3.437986    2.3948277   -1.0431584    1.6094272    1.5815543 
       48.02   -3.4022696     2.364954   -1.0373156    1.5893508     1.709009 
       48.03   -3.3899517    2.3568085   -1.0331432    1.5838767    1.7734544 
       48.04   -3.3851055    2.3532527   -1.0318529     1.581487    1.8068416 
       48.05   -3.3874102    2.3545016   -1.0329085    1.5823264    1.8067467 
       48.06   -3.4124374    2.3746409   -1.0377965    1.5958608    1.7356131 
       48.07   -3.4746856    2.4232792   -1.0514064    1.6285478    1.5623585 
       48.08   -3.5507285    2.4779266   -1.0728019    1.6652733    1.3447849 
       48.09     -3.60698    2.5043854   -1.1025946    1.6830547    1.1674811 
        48.1   -3.6283173    2.4849742   -1.1433431    1.6700095    1.0732134 
       48.11   -3.6158541    2.4232982   -1.1925559    1.6285606    1.0612632 
       48.12   -3.5874052     2.341979   -1.2454263    1.5739106    1.0895095 
       48.13   -3.5763139    2.2721551   -1.3041588     1.526986    1.0856756 
       48.14   -3.5882247    2.2241607    -1.364064    1.4947316    1.0343095 
       48.15   -3.5979317    2.1786688   -1.4192629    1.4641591   0.99340287 
       48.16   -3.5840591    2.1191459   -1.4649132    1.4241572    1.0106076 
       48.17   -3.5566822    2.0542712   -1.5024111    1.3805586    1.0635025 
       48.18   -3.5340983    2.0022376   -1.5318608    1.3455898    1.1054587 
       48.19    -3.520217    1.9669556   -1.5532614    1.3218788    1.1258521 
        48.2   -3.5139332    1.9451082    -1.568825    1.3071964    1.1277871 
       48.21   -3.5136093      1.93633   -1.5772793     1.301297    1.1123089 
       48.22   -3.5198993    1.9387883    -1.581111    1.3029492     1.079385 
       48.23   -3.5206178    1.9424237   -1.5781941    1.3053923    1.0573834 
       48.24   -3.5120843    1.9416858   -1.5703984    1.3048964    1.0583333 
       48.25   -3.4987264    1.9401954    -1.558531    1.3038947    1.0741713 
       48.26   -3.4846132    1.9420643   -1.5425489    1.3051507    1.0944691 
       48.27   -3.4694735    1.9478928   -1.5215807    1.3090677    1.1183532 
       48.28   -3.4640363    1.9676131   -1.4964232    1.3223206    1.1190088 
       48.29   -3.4801726    2.0086887   -1.4714839    1.3499252    1.0707926 
        48.3    -3.496867     2.054314    -1.442553    1.3805874    1.0188981 
       48.31   -3.4967398    2.0876088    -1.409131    1.4029629    1.0035054 
       48.32   -3.4891067    2.1132828   -1.3758239     1.420217    1.0064919 
       48.33   -3.4830894    2.1393316   -1.3437578    1.4377228    1.0079037 
       48.34   -3.4803895    2.1674546   -1.3129349    1.4566227    1.0053405 
       48.35   -3.4869354    2.2039904    -1.282945    1.4811763   0.98420969 
       48.36   -3.5103868    2.2533148   -1.2570721    1.5143244   0.92889406 
       48.37   -3.5371361    2.3022851    -1.234851    1.5472346   0.86907088 
       48.38   -3.5449746    2.3294259   -1.2155487    1.5654744   0.85346054 
       48.39     -3.52619    2.3275205   -1.1986695    1.5641939    0.8965413 
        48.4   -3.4954113    2.3116544   -1.1837569    1.5535312   0.96186028 
       48.41   -3.4810856    2.3076756     -1.17341    1.5508573   0.98607816 
       48.42   -3.4928877    2.3255636   -1.1673241    1.5628788   0.94863209 
       48.43   -3.5137448    2.3499764   -1.1637684    1.5792852   0.89164985 
       48.44   -3.5263338    2.3634324   -1.1629014    1.5883282   0.85785736 
       48.45   -3.5226186    2.3599238   -1.1626949    1.5859703    0.8631947 
       48.46   -3.5026155    2.3379072   -1.1647082    1.5711742   0.90796579 
       48.47   -3.4689095    2.3006201   -1.1682894    1.5461157   0.98386831 
       48.48   -3.4400115    2.2663719   -1.1736396    1.5230994    1.0466059 
       48.49   -3.4394156    2.2594944   -1.1799212    1.5184774     1.038375 
        48.5   -3.4691146    2.2809226   -1.1881919    1.5328781   0.95653774 
       48.51   -3.5074847    2.3088222   -1.1986624    1.5516278   0.85509074 
       48.52   -3.5330629    2.3257067   -1.2073562    1.5629749   0.78241953 
       48.53   -3.5419333    2.3208671   -1.2210662    1.5597225   0.75848738 
       48.54   -3.5189366    2.2831945   -1.2357421    1.5344049    0.8168953 
       48.55     -3.46552    2.2142048   -1.2513152    1.4880409   0.95468111 
       48.56   -3.4023124    2.1355323   -1.2667801    1.4351696    1.1208766 
       48.57   -3.3556587     2.075369   -1.2802897    1.3947373    1.2477729 
       48.58   -3.3406093    2.0463889   -1.2942204    1.3752614    1.2987436 
       48.59   -3.3485591    2.0427428   -1.3058164     1.372811    1.2867227 
        48.6   -3.3691865    2.0555207   -1.3136658    1.3813983    1.2327003 
       48.61   -3.3998036    2.0802474   -1.3195563    1.3980157    1.1444051 
       48.62   -3.4238779     2.098416   -1.3254619    1.4102258    1.0630688 
       48.63   -3.4113898    2.0863572   -1.3250326    1.4021218    1.0582345 
       48.64   -3.3881214    2.0670624   -1.3210591    1.3891548    1.0765582 
       48.65   -3.3930857    2.0772993   -1.3157864    1.3960345    1.0337061 
       48.66   -3.4115663    2.1053343    -1.306232    1.4148752   0.95924762 
       48.67   -3.4038243    2.1173942   -1.2864301      1.42298   0.94192211 
       48.68   -3.3834204    2.1243354   -1.2590851    1.4276447   0.95243703 
       48.69   -3.3895805    2.1630851   -1.2264954    1.4536862    0.9058537 
        48.7   -3.4295641     2.238654     -1.19091    1.5044718   0.78885107 
       48.71   -3.4540509    2.3051468   -1.1489042    1.5491578   0.71495768 
       48.72   -3.4278735    2.3290134   -1.0988601    1.5651972   0.76025147 
       48.73   -3.3759722    2.3265203   -1.0494519    1.5635217   0.87296658 
       48.74    -3.339134    2.3370696   -1.0020644    1.5706113   0.95475632 
       48.75   -3.3408387    2.3820053  -0.95883338      1.60081   0.95184155 
       48.76   -3.3737427    2.4522051  -0.92153755    1.6479873   0.87674439 
       48.77   -3.4010838    2.5118119  -0.88927187    1.6880456   0.81228742 
       48.78   -3.4035305      2.54314  -0.86039052    1.7090995    0.8014929 
       48.79   -3.4111665    2.5713391  -0.83982734    1.7280505   0.78249568 
        48.8   -3.4496306    2.6169433  -0.83268732    1.7586985   0.70086425 
       48.81   -3.4848364    2.6514481   -0.8333883    1.7818872   0.63373489 
       48.82     -3.49294    2.6518959   -0.8410441    1.7821881   0.63442391 
       48.83   -3.4831941    2.6239378  -0.85925627    1.7633991   0.68310132 
       48.84   -3.4584061    2.5729981  -0.88540799    1.7291654   0.76980953 
       48.85   -3.4239682    2.5070263  -0.91694187    1.6848295   0.87879863 
       48.86   -3.4019843    2.4481634  -0.95382083    1.6452711   0.95790337 
       48.87   -3.4089495    2.4137098  -0.99523968    1.6221168   0.96744675 
       48.88   -3.4373812     2.397937   -1.0394442    1.6115168   0.92475828 
       48.89   -3.4714828    2.3871154   -1.0843674    1.6042442   0.86675342 
        48.9   -3.5001751    2.3729152   -1.1272599    1.5947011   0.81969854 
       48.91   -3.5178883    2.3494883      -1.1684    1.5789572   0.80187543 
       48.92   -3.5200583    2.3148167   -1.2052416    1.5556564   0.82478819 
       48.93    -3.514416    2.2743821   -1.2400339    1.5284826    0.8754545 
       48.94   -3.5089923    2.2401566   -1.2688357    1.5054816   0.93097863 
       48.95    -3.512091    2.2209322   -1.2911588     1.492562   0.96969822 
       48.96   -3.5222458    2.2095965   -1.3126493    1.4849439   0.99964663 
       48.97   -3.5165067    2.1857783   -1.3307285     1.468937    1.0685122 
       48.98    -3.475191    2.1303658   -1.3448252    1.4316975    1.2191663 
       48.99   -3.4050795    2.0548649   -1.3502146    1.3809576    1.4329316 
          49   -3.3722215    2.0167834   -1.3554381    1.3553652    1.5615721 
       49.01   -3.3865909    2.0230503   -1.3635406    1.3595768    1.5789427 
       49.02   -3.3698246    2.0101324   -1.3596922    1.3508954    1.6554979 
       49.03   -3.3349722    1.9867816   -1.3481906    1.3352027    1.7620846 
       49.04   -3.3571752    2.0153759   -1.3417993    1.3544193    1.7297469 
       49.05    -3.415986    2.0824119   -1.3335742    1.3994703    1.6004669 
       49.06   -3.4591563     2.138728   -1.3204283    1.4373172    1.4923817 
       49.07   -3.4825842    2.1793481   -1.3032361    1.4646157    1.4140687 
       49.08   -3.5094421    2.2243517   -1.2850904      1.49486    1.3174447 
       49.09   -3.5541821    2.2842175   -1.2699646    1.5350924    1.1769342 
        49.1   -3.6021715    2.3466542   -1.2555172    1.5770526    1.0260904 
       49.11   -3.6268909     2.384403   -1.2424879    1.6024214   0.92924979 
       49.12   -3.6116843    2.3827159   -1.2289684    1.6012876   0.92448522 
       49.13   -3.5795855    2.3602136   -1.2193719    1.5861651   0.96346264 
       49.14   -3.5555622    2.3425687   -1.2129935    1.5743069   0.98603097 
       49.15   -3.5407298    2.3287141   -1.2120157     1.564996   0.99334752 
       49.16   -3.5134397    2.3028591   -1.2105806    1.5476204    1.0272384 
       49.17   -3.4651201    2.2556834   -1.2094368    1.5159162    1.1082343 
       49.18   -3.4147467    2.2083242   -1.2064225    1.4840889    1.1918141 
       49.19   -3.4109928    2.2034628     -1.20753    1.4808218    1.1701889 
        49.2   -3.4440466    2.2324269   -1.2116197    1.5002869    1.0666466 
       49.21   -3.4575987    2.2484662   -1.2091325     1.511066    1.0046141 
       49.22   -3.4545712    2.2499197   -1.2046515    1.5120428   0.98065698 
       49.23   -3.4681866    2.2654231   -1.2027635    1.5224618    0.9206839 
       49.24   -3.4987407    2.2938812   -1.2048595    1.5415868    0.8252409 
       49.25   -3.5118185    2.3068302   -1.2049884    1.5502891   0.76798254 
       49.26   -3.5033206    2.3019123   -1.2014083    1.5469841   0.75940777 
       49.27   -3.5134413    2.3092134   -1.2042278    1.5518908   0.71565313 
       49.28   -3.5312673    2.3228248   -1.2084425    1.5610381   0.65924553 
       49.29   -3.5282251    2.3145173   -1.2137078    1.5554552   0.65322261 
        49.3    -3.498626    2.2789969    -1.219629     1.531584   0.70771629 
       49.31   -3.4697692    2.2424224   -1.2273468    1.5070043   0.76054074 
       49.32    -3.477724    2.2368693   -1.2408547    1.5032724   0.73164424 
       49.33   -3.5095102    2.2525486   -1.2569615    1.5138096   0.64887066 
       49.34   -3.5328177     2.259686   -1.2731317    1.5186062   0.58573053 
       49.35   -3.5431394    2.2511694     -1.29197    1.5128827   0.55553065 
       49.36   -3.5412772    2.2290929   -1.3121844    1.4980463   0.55664354 
       49.37   -3.5246248    2.1905533   -1.3340715    1.4721461   0.59803813 
       49.38    -3.494729    2.1417672   -1.3529617    1.4393597   0.67367703 
       49.39   -3.4753235    2.1020865    -1.373237    1.4126925   0.73427182 
        49.4   -3.4640042    2.0687861   -1.3952181    1.3903133   0.78588449 
       49.41   -3.4254885    2.0145163   -1.4109722    1.3538416   0.90198245 
       49.42   -3.3597449    1.9390274   -1.4207174    1.3031098    1.0836462 
       49.43   -3.3094315    1.8844506   -1.4249809    1.2664319    1.2303512 
       49.44   -3.3009288    1.8732616   -1.4276672    1.2589123    1.2819908 
       49.45   -3.3040759    1.8807784   -1.4232975     1.263964    1.3022312 
       49.46   -3.3013272    1.8901536   -1.4111737    1.2702645     1.328905 
       49.47    -3.306369    1.9138896   -1.3924794    1.2862161    1.3333799 
       49.48   -3.3407428    1.9716834   -1.3690593    1.3250561    1.2683959 
       49.49   -3.3975049    2.0572022   -1.3403027    1.3825284    1.1509923 
        49.5   -3.4521135    2.1454319   -1.3066816    1.4418225    1.0383269 
       49.51   -3.4877477     2.220544   -1.2672037    1.4923011   0.96525253 
       49.52   -3.5058436    2.2782467   -1.2275969    1.5310798   0.93137257 
       49.53   -3.5048465    2.3157731   -1.1890734    1.5562991   0.93917393 
       49.54   -3.4856751     2.334168   -1.1515071    1.5686613   0.98406803 
       49.55   -3.4530626    2.3358462   -1.1172164    1.5697891      1.05485 
       49.56   -3.4114722    2.3237436   -1.0877286    1.5616556    1.1429159 
       49.57   -3.3797878    2.3172493   -1.0625385    1.5572912    1.2021736 
       49.58   -3.3783301    2.3368845   -1.0414457    1.5704869    1.1869632 
       49.59   -3.4130623     2.388554   -1.0245082    1.6052111    1.0861272 
        49.6   -3.4609132    2.4490361   -1.0118771    1.6458576   0.95376227 
       49.61    -3.482743    2.4803748   -1.0023682    1.6669186   0.88364085 
       49.62   -3.4772519    2.4792558  -0.99799612    1.6661665   0.88121075 
       49.63   -3.4596153    2.4597243  -0.99989104    1.6530405   0.91315279 
       49.64   -3.4291141    2.4252437   -1.0038704    1.6298681   0.97606922 
       49.65   -3.3982551    2.3870189   -1.0112363    1.6041793    1.0417178 
       49.66    -3.399516    2.3761392   -1.0233768    1.5968677    1.0335001 
       49.67   -3.4463703    2.4027456   -1.0436246    1.6147484   0.92290723 
       49.68   -3.5032847     2.436523   -1.0667617    1.6374482   0.78734061 
       49.69   -3.5385052    2.4442485   -1.0942567    1.6426401   0.70286424 
        49.7   -3.5434296    2.4176673   -1.1257622    1.6247764   0.69078031 
       49.71   -3.5265718    2.3695676   -1.1570043    1.5924513   0.72974786 
       49.72   -3.5132091    2.3200623   -1.1931467    1.5591817   0.77028459 
       49.73   -3.5100898    2.2795277   -1.2305622    1.5319406   0.79415777 
       49.74   -3.5122539    2.2440981   -1.2681558    1.5081304   0.81160919 
       49.75   -3.5081739    2.2041826   -1.3039912    1.4813055   0.84564145 
       49.76   -3.4902574    2.1576378   -1.3326196    1.4500254   0.90630794 
       49.77   -3.4779447    2.1199894   -1.3579553    1.4247241   0.95116354 
       49.78   -3.4886164    2.1101504    -1.378466    1.4181118   0.93544414 
       49.79    -3.515465    2.1181333   -1.3973318    1.4234767   0.87732421 
        49.8   -3.5215511    2.1132393   -1.4083118    1.4201877   0.85951213 
       49.81   -3.5092993    2.0953838   -1.4139154    1.4081881   0.88077293 
       49.82   -3.5071875    2.0887695    -1.418418     1.403743   0.88129202 
       49.83   -3.5245839    2.1029737   -1.4216102    1.4132888   0.83925219 
       49.84   -3.5423725    2.1217483   -1.4206242    1.4259061   0.79463299 
       49.85   -3.5442939    2.1277105   -1.4165834     1.429913   0.78691317 
       49.86   -3.5436712     2.133589   -1.4100822    1.4338636   0.78500815 
       49.87   -3.5627869     2.158355   -1.4044319    1.4505074   0.73854017 
       49.88   -3.5860035    2.1868019   -1.3992016     1.469625   0.68471476 
       49.89   -3.5861616    2.1931231   -1.3930385     1.473873   0.68540457 
        49.9   -3.5606226    2.1767707   -1.3838519    1.4628835   0.74573083 
       49.91   -3.5401896     2.165791   -1.3743986    1.4555047   0.79855192 
       49.92   -3.5476142    2.1786884   -1.3689258    1.4641723   0.79461146 
       49.93   -3.5576375    2.1955943   -1.3620432    1.4755338    0.7899775 
       49.94   -3.5477239    2.1949541   -1.3527698    1.4751036    0.8354273 
       49.95   -3.5140623    2.1721603    -1.341902    1.4597852   0.94056367 
       49.96    -3.467327    2.1388386   -1.3284883    1.4373916    1.0803214 
       49.97    -3.437433    2.1215031     -1.31593    1.4257413    1.1866899 
       49.98   -3.4350471    2.1310247   -1.3040224    1.4321403    1.2316952 
       49.99   -3.4352475    2.1440633   -1.2911842    1.4409028    1.2709855 
          50   -3.4101478     2.136885   -1.2732628    1.4360786    1.3645088 
Loop time of 1.22569 on 8 procs for 5000 steps with 125 atoms

Performance: 3524542.938 tau/day, 4079.332 timesteps/s
94.3% CPU use with 1 MPI tasks x 8 OpenMP threads

MPI task timing breakdown:
Section |  min time  |  avg time  |  max time  |%varavg| %total
---------------------------------------------------------------
Pair    | 0.36716    | 0.36716    | 0.36716    |   0.0 | 29.96
Neigh   | 0.0099661  | 0.0099661  | 0.0099661  |   0.0 |  0.81
Comm    | 0.013954   | 0.013954   | 0.013954   |   0.0 |  1.14
Output  | 0.15383    | 0.15383    | 0.15383    |   0.0 | 12.55
Modify  | 0.67373    | 0.67373    | 0.67373    |   0.0 | 54.97
Other   |            | 0.007053   |            |       |  0.58

Nlocal:        125.000 ave         125 max         125 min
Histogram: 1 0 0 0 0 0 0 0 0 0
Nghost:        1766.00 ave        1766 max        1766 min
Histogram: 1 0 0 0 0 0 0 0 0 0
Neighs:        13507.0 ave       13507 max       13507 min
Histogram: 1 0 0 0 0 0 0 0 0 0

Total # of neighbors = 13507
Ave neighs/atom = 108.05600
Neighbor list builds = 185
Dangerous builds = 0
unfix nve
ERROR: Could not find fix ID to delete (src/modify.cpp:1037)
Last command: unfix nve
